 Entering Gaussian System, Link 0=g09
 Input=meets2.com
 Output=meets2.log
 Initial command:
 /afs/crc.nd.edu/x86_64_linux/gaussian/09D01/pgi12.8/g09/l1.exe "/scratch/Gau-22121.inp" -scrdir="/scratch/"
 Entering Link 1 = /afs/crc.nd.edu/x86_64_linux/gaussian/09D01/pgi12.8/g09/l1.exe PID=     22122.
  
 Copyright (c) 1988,1990,1992,1993,1995,1998,2003,2009,2013,
            Gaussian, Inc.  All Rights Reserved.
  
 This is part of the Gaussian(R) 09 program.  It is based on
 the Gaussian(R) 03 system (copyright 2003, Gaussian, Inc.),
 the Gaussian(R) 98 system (copyright 1998, Gaussian, Inc.),
 the Gaussian(R) 94 system (copyright 1995, Gaussian, Inc.),
 the Gaussian 92(TM) system (copyright 1992, Gaussian, Inc.),
 the Gaussian 90(TM) system (copyright 1990, Gaussian, Inc.),
 the Gaussian 88(TM) system (copyright 1988, Gaussian, Inc.),
 the Gaussian 86(TM) system (copyright 1986, Carnegie Mellon
 University), and the Gaussian 82(TM) system (copyright 1983,
 Carnegie Mellon University). Gaussian is a federally registered
 trademark of Gaussian, Inc.
  
 This software contains proprietary and confidential information,
 including trade secrets, belonging to Gaussian, Inc.
  
 This software is provided under written license and may be
 used, copied, transmitted, or stored only in accord with that
 written license.
  
 The following legend is applicable only to US Government
 contracts under FAR:
  
                    RESTRICTED RIGHTS LEGEND
  
 Use, reproduction and disclosure by the US Government is
 subject to restrictions as set forth in subparagraphs (a)
 and (c) of the Commercial Computer Software - Restricted
 Rights clause in FAR 52.227-19.
  
 Gaussian, Inc.
 340 Quinnipiac St., Bldg. 40, Wallingford CT 06492
  
  
 ---------------------------------------------------------------
 Warning -- This program may not be used in any manner that
 competes with the business of Gaussian, Inc. or will provide
 assistance to any competitor of Gaussian, Inc.  The licensee
 of this program is prohibited from giving any competitor of
 Gaussian, Inc. access to this program.  By using this program,
 the user acknowledges that Gaussian, Inc. is engaged in the
 business of creating and licensing software in the field of
 computational chemistry and represents and warrants to the
 licensee that it is not a competitor of Gaussian, Inc. and that
 it will not use this program in any manner prohibited above.
 ---------------------------------------------------------------
  

 Cite this work as:
 Gaussian 09, Revision D.01,
 M. J. Frisch, G. W. Trucks, H. B. Schlegel, G. E. Scuseria, 
 M. A. Robb, J. R. Cheeseman, G. Scalmani, V. Barone, B. Mennucci, 
 G. A. Petersson, H. Nakatsuji, M. Caricato, X. Li, H. P. Hratchian, 
 A. F. Izmaylov, J. Bloino, G. Zheng, J. L. Sonnenberg, M. Hada, 
 M. Ehara, K. Toyota, R. Fukuda, J. Hasegawa, M. Ishida, T. Nakajima, 
 Y. Honda, O. Kitao, H. Nakai, T. Vreven, J. A. Montgomery, Jr., 
 J. E. Peralta, F. Ogliaro, M. Bearpark, J. J. Heyd, E. Brothers, 
 K. N. Kudin, V. N. Staroverov, T. Keith, R. Kobayashi, J. Normand, 
 K. Raghavachari, A. Rendell, J. C. Burant, S. S. Iyengar, J. Tomasi, 
 M. Cossi, N. Rega, J. M. Millam, M. Klene, J. E. Knox, J. B. Cross, 
 V. Bakken, C. Adamo, J. Jaramillo, R. Gomperts, R. E. Stratmann, 
 O. Yazyev, A. J. Austin, R. Cammi, C. Pomelli, J. W. Ochterski, 
 R. L. Martin, K. Morokuma, V. G. Zakrzewski, G. A. Voth, 
 P. Salvador, J. J. Dannenberg, S. Dapprich, A. D. Daniels, 
 O. Farkas, J. B. Foresman, J. V. Ortiz, J. Cioslowski, 
 and D. J. Fox, Gaussian, Inc., Wallingford CT, 2013.
 
 ******************************************
 Gaussian 09:  AM64L-G09RevD.01 24-Apr-2013
                 2-Jun-2016 
 ******************************************
 %oldchk=meets2.chk
 %mem=2GB
 %nproc=8
 Will use up to    8 processors via shared memory.
 Copying data from "meets2.chk" to current chk file "/scratch/Gau-22122.chk".
 ----------------------------------------------------------------------
 #p geom=allcheck guess=read chkbasis freq=(noraman,HPModes) pop=(Chelp
 G,readradii) m06 empiricaldispersion=gd3 int=ultrafine
 ----------------------------------------------------------------------
 1/10=4,29=7,30=1,38=1/1,3;
 2/12=2,40=1/2;
 3/5=7,6=2,11=2,14=-4,16=1,25=1,30=1,67=1,71=2,74=-54,75=-5,116=-2,124=31,140=1/1,2,3;
 4/5=1/1;
 5/5=2,38=6,98=1/2;
 8/6=4,10=90,11=11/1;
 11/6=1,8=1,9=11,15=111,16=1/1,2,10;
 10/6=1/2;
 6/7=2,8=2,9=2,10=2,15=8,18=1,20=103,28=1/1,2;
 7/8=11,10=1,25=1/1,2,3,16;
 1/10=4,30=1/3;
 99//99;
 Leave Link    1 at Thu Jun  2 14:55:25 2016, MaxMem=   268435456 cpu:         2.5
 (Enter /afs/crc.nd.edu/x86_64_linux/gaussian/09D01/pgi12.8/g09/l101.exe)
 Structure from the checkpoint file:  "/scratch/Gau-22122.chk"
 ------------
 freq with HP
 ------------
 Charge =  1 Multiplicity = 1
 Redundant internal coordinates found in file.
 Pd,0,-0.0724279406,-0.9477460021,0.0007699951
 C,0,-0.1151306692,-3.0310604697,-0.0422509527
 C,0,-1.4984870268,-2.817815308,-0.2073312058
 C,0,-2.1503117476,-0.8304271898,-0.0915120611
 N,0,0.1906306741,1.2180271234,-0.0775714909
 C,0,1.4254308585,1.5598338736,-0.1391359417
 C,0,2.5159681118,0.583992895,-0.0463194261
 N,0,2.10892637,-0.6999074395,0.06907671
 C,0,3.0389188054,-1.6494541089,0.1755888237
 H,0,2.6825005488,-2.6738758613,0.2680823309
 O,0,1.7138559322,2.848419891,-0.2820332634
 C,0,-3.8595819958,0.3642936746,-1.2981761036
 C,0,-4.5263909985,0.6158184965,-0.0992577992
 C,0,-4.0116150654,0.128308211,1.1012865046
 C,0,-2.8243055495,-0.6018608624,1.1097802395
 C,0,-2.6739102194,-0.3689771862,-1.3011746092
 H,0,-5.4601272338,1.1750255441,-0.1033449706
 H,0,-4.5388094291,0.3092921106,2.0369239035
 H,0,-2.4291569178,-0.9924084537,2.0488262973
 H,0,-2.1616687591,-0.5775144846,-2.2415657299
 H,0,-4.2691642832,0.7284287011,-2.2393481723
 H,0,-1.9359211253,-2.9345584208,-1.1973115022
 H,0,-2.1694100028,-3.0616545601,0.6132279123
 H,0,0.255707747,-3.3795066222,0.9248732304
 H,0,0.4860740906,-3.3038116378,-0.9132803227
 C,0,3.8524495715,0.9527061825,-0.0652732545
 C,0,4.8163341167,-0.0472957947,0.0485995157
 C,0,4.4036717477,-1.3666158547,0.1732712333
 C,0,0.4351065311,3.5066737527,-0.5088826818
 C,0,-0.6050805638,2.4606542242,-0.0738673099
 H,0,4.1210466139,2.0017673727,-0.165188956
 H,0,5.874367935,0.2054071335,0.0401440812
 H,0,5.1212990449,-2.1778297961,0.266672402
 H,0,0.4242966445,4.4206128114,0.0924781755
 H,0,0.3908466042,3.7608507156,-1.5740191455
 H,0,-1.4181904236,2.3645350589,-0.8056056471
 C,0,-1.1643090837,2.7141757428,1.3147150959
 H,0,-1.7794087893,3.622738477,1.3209100075
 H,0,-1.7885419655,1.8749135251,1.6420608438
 H,0,-0.3481421582,2.843564535,2.039713244
 Recover connectivity data from disk.
 NAtoms=     40 NQM=       40 NQMF=       0 NMMI=      0 NMMIF=      0
                NMic=       0 NMicF=      0.
                    Isotopes and Nuclear Properties:
 (Nuclear quadrupole moments (NQMom) in fm**2, nuclear magnetic moments (NMagM)
  in nuclear magnetons)

  Atom         1           2           3           4           5           6           7           8           9          10
 IAtWgt=         106          12          12          12          14          12          12          14          12           1
 AtmWgt= 105.9032000  12.0000000  12.0000000  12.0000000  14.0030740  12.0000000  12.0000000  14.0030740  12.0000000   1.0078250
 NucSpn=           0           0           0           0           2           0           0           2           0           1
 AtZEff=-237.3600000  -3.6000000  -3.6000000  -3.6000000  -4.5500000  -3.6000000  -3.6000000  -4.5500000  -3.6000000  -1.0000000
 NQMom=    0.0000000   0.0000000   0.0000000   0.0000000   2.0440000   0.0000000   0.0000000   2.0440000   0.0000000   0.0000000
 NMagM=    0.0000000   0.0000000   0.0000000   0.0000000   0.4037610   0.0000000   0.0000000   0.4037610   0.0000000   2.7928460
 AtZNuc=  46.0000000   6.0000000   6.0000000   6.0000000   7.0000000   6.0000000   6.0000000   7.0000000   6.0000000   1.0000000

  Atom        11          12          13          14          15          16          17          18          19          20
 IAtWgt=          16          12          12          12          12          12           1           1           1           1
 AtmWgt=  15.9949146  12.0000000  12.0000000  12.0000000  12.0000000  12.0000000   1.0078250   1.0078250   1.0078250   1.0078250
 NucSpn=           0           0           0           0           0           0           1           1           1           1
 AtZEff=  -5.6000000  -3.6000000  -3.6000000  -3.6000000  -3.6000000  -3.6000000  -1.0000000  -1.0000000  -1.0000000  -1.0000000
 NQMom=    0.0000000   0.0000000   0.0000000   0.0000000   0.0000000   0.0000000   0.0000000   0.0000000   0.0000000   0.0000000
 NMagM=    0.0000000   0.0000000   0.0000000   0.0000000   0.0000000   0.0000000   2.7928460   2.7928460   2.7928460   2.7928460
 AtZNuc=   8.0000000   6.0000000   6.0000000   6.0000000   6.0000000   6.0000000   1.0000000   1.0000000   1.0000000   1.0000000

  Atom        21          22          23          24          25          26          27          28          29          30
 IAtWgt=           1           1           1           1           1          12          12          12          12          12
 AtmWgt=   1.0078250   1.0078250   1.0078250   1.0078250   1.0078250  12.0000000  12.0000000  12.0000000  12.0000000  12.0000000
 NucSpn=           1           1           1           1           1           0           0           0           0           0
 AtZEff=  -1.0000000  -1.0000000  -1.0000000  -1.0000000  -1.0000000  -3.6000000  -3.6000000  -3.6000000  -3.6000000  -3.6000000
 NQMom=    0.0000000   0.0000000   0.0000000   0.0000000   0.0000000   0.0000000   0.0000000   0.0000000   0.0000000   0.0000000
 NMagM=    2.7928460   2.7928460   2.7928460   2.7928460   2.7928460   0.0000000   0.0000000   0.0000000   0.0000000   0.0000000
 AtZNuc=   1.0000000   1.0000000   1.0000000   1.0000000   1.0000000   6.0000000   6.0000000   6.0000000   6.0000000   6.0000000

  Atom        31          32          33          34          35          36          37          38          39          40
 IAtWgt=           1           1           1           1           1           1          12           1           1           1
 AtmWgt=   1.0078250   1.0078250   1.0078250   1.0078250   1.0078250   1.0078250  12.0000000   1.0078250   1.0078250   1.0078250
 NucSpn=           1           1           1           1           1           1           0           1           1           1
 AtZEff=  -1.0000000  -1.0000000  -1.0000000  -1.0000000  -1.0000000  -1.0000000  -3.6000000  -1.0000000  -1.0000000  -1.0000000
 NQMom=    0.0000000   0.0000000   0.0000000   0.0000000   0.0000000   0.0000000   0.0000000   0.0000000   0.0000000   0.0000000
 NMagM=    2.7928460   2.7928460   2.7928460   2.7928460   2.7928460   2.7928460   0.0000000   2.7928460   2.7928460   2.7928460
 AtZNuc=   1.0000000   1.0000000   1.0000000   1.0000000   1.0000000   1.0000000   6.0000000   1.0000000   1.0000000   1.0000000
 Leave Link  101 at Thu Jun  2 14:55:25 2016, MaxMem=   268435456 cpu:         0.8
 (Enter /afs/crc.nd.edu/x86_64_linux/gaussian/09D01/pgi12.8/g09/l103.exe)

 GradGradGradGradGradGradGradGradGradGradGradGradGradGradGradGradGradGrad
 Berny optimization.
 Initialization pass.
                           ----------------------------
                           !    Initial Parameters    !
                           ! (Angstroms and Degrees)  !
 --------------------------                            --------------------------
 ! Name  Definition              Value          Derivative Info.                !
 --------------------------------------------------------------------------------
 ! R1    R(1,2)                  2.0842         calculate D2E/DX2 analytically  !
 ! R2    R(1,3)                  2.361          calculate D2E/DX2 analytically  !
 ! R3    R(1,4)                  2.0832         calculate D2E/DX2 analytically  !
 ! R4    R(1,5)                  2.1831         calculate D2E/DX2 analytically  !
 ! R5    R(1,8)                  2.1965         calculate D2E/DX2 analytically  !
 ! R6    R(2,3)                  1.4094         calculate D2E/DX2 analytically  !
 ! R7    R(2,24)                 1.0928         calculate D2E/DX2 analytically  !
 ! R8    R(2,25)                 1.0929         calculate D2E/DX2 analytically  !
 ! R9    R(3,22)                 1.0886         calculate D2E/DX2 analytically  !
 ! R10   R(3,23)                 1.0876         calculate D2E/DX2 analytically  !
 ! R11   R(4,15)                 1.3963         calculate D2E/DX2 analytically  !
 ! R12   R(4,16)                 1.3966         calculate D2E/DX2 analytically  !
 ! R13   R(5,6)                  1.2827         calculate D2E/DX2 analytically  !
 ! R14   R(5,30)                 1.4756         calculate D2E/DX2 analytically  !
 ! R15   R(6,7)                  1.4663         calculate D2E/DX2 analytically  !
 ! R16   R(6,11)                 1.3282         calculate D2E/DX2 analytically  !
 ! R17   R(7,8)                  1.3518         calculate D2E/DX2 analytically  !
 ! R18   R(7,26)                 1.3865         calculate D2E/DX2 analytically  !
 ! R19   R(8,9)                  1.3334         calculate D2E/DX2 analytically  !
 ! R20   R(9,10)                 1.0886         calculate D2E/DX2 analytically  !
 ! R21   R(9,28)                 1.3938         calculate D2E/DX2 analytically  !
 ! R22   R(11,29)                1.456          calculate D2E/DX2 analytically  !
 ! R23   R(12,13)                1.3947         calculate D2E/DX2 analytically  !
 ! R24   R(12,16)                1.3941         calculate D2E/DX2 analytically  !
 ! R25   R(12,21)                1.0891         calculate D2E/DX2 analytically  !
 ! R26   R(13,14)                1.3943         calculate D2E/DX2 analytically  !
 ! R27   R(13,17)                1.0884         calculate D2E/DX2 analytically  !
 ! R28   R(14,15)                1.3939         calculate D2E/DX2 analytically  !
 ! R29   R(14,18)                1.0891         calculate D2E/DX2 analytically  !
 ! R30   R(15,19)                1.0911         calculate D2E/DX2 analytically  !
 ! R31   R(16,20)                1.091          calculate D2E/DX2 analytically  !
 ! R32   R(26,27)                1.3936         calculate D2E/DX2 analytically  !
 ! R33   R(26,31)                1.0875         calculate D2E/DX2 analytically  !
 ! R34   R(27,28)                1.388          calculate D2E/DX2 analytically  !
 ! R35   R(27,32)                1.0878         calculate D2E/DX2 analytically  !
 ! R36   R(28,33)                1.0871         calculate D2E/DX2 analytically  !
 ! R37   R(29,30)                1.538          calculate D2E/DX2 analytically  !
 ! R38   R(29,34)                1.0941         calculate D2E/DX2 analytically  !
 ! R39   R(29,35)                1.0959         calculate D2E/DX2 analytically  !
 ! R40   R(30,36)                1.0981         calculate D2E/DX2 analytically  !
 ! R41   R(30,37)                1.5183         calculate D2E/DX2 analytically  !
 ! R42   R(37,38)                1.0972         calculate D2E/DX2 analytically  !
 ! R43   R(37,39)                1.096          calculate D2E/DX2 analytically  !
 ! R44   R(37,40)                1.0993         calculate D2E/DX2 analytically  !
 ! A1    A(2,1,4)               92.0024         calculate D2E/DX2 analytically  !
 ! A2    A(2,1,8)               97.688          calculate D2E/DX2 analytically  !
 ! A3    A(3,1,4)               55.8222         calculate D2E/DX2 analytically  !
 ! A4    A(3,1,5)              148.8057         calculate D2E/DX2 analytically  !
 ! A5    A(3,1,8)              133.7873         calculate D2E/DX2 analytically  !
 ! A6    A(4,1,5)               93.5965         calculate D2E/DX2 analytically  !
 ! A7    A(5,1,8)               76.6738         calculate D2E/DX2 analytically  !
 ! A8    A(1,2,24)             107.0673         calculate D2E/DX2 analytically  !
 ! A9    A(1,2,25)             104.7517         calculate D2E/DX2 analytically  !
 ! A10   A(3,2,24)             119.0104         calculate D2E/DX2 analytically  !
 ! A11   A(3,2,25)             118.9683         calculate D2E/DX2 analytically  !
 ! A12   A(24,2,25)            116.0435         calculate D2E/DX2 analytically  !
 ! A13   A(1,3,22)             114.0678         calculate D2E/DX2 analytically  !
 ! A14   A(1,3,23)             118.9263         calculate D2E/DX2 analytically  !
 ! A15   A(2,3,22)             118.9929         calculate D2E/DX2 analytically  !
 ! A16   A(2,3,23)             118.8937         calculate D2E/DX2 analytically  !
 ! A17   A(22,3,23)            114.4681         calculate D2E/DX2 analytically  !
 ! A18   A(1,4,15)             116.9088         calculate D2E/DX2 analytically  !
 ! A19   A(1,4,16)             115.5269         calculate D2E/DX2 analytically  !
 ! A20   A(15,4,16)            120.6736         calculate D2E/DX2 analytically  !
 ! A21   A(1,5,6)              112.4624         calculate D2E/DX2 analytically  !
 ! A22   A(1,5,30)             140.3884         calculate D2E/DX2 analytically  !
 ! A23   A(6,5,30)             107.1474         calculate D2E/DX2 analytically  !
 ! A24   A(5,6,7)              122.3819         calculate D2E/DX2 analytically  !
 ! A25   A(5,6,11)             118.2122         calculate D2E/DX2 analytically  !
 ! A26   A(7,6,11)             119.4038         calculate D2E/DX2 analytically  !
 ! A27   A(6,7,8)              114.4265         calculate D2E/DX2 analytically  !
 ! A28   A(6,7,26)             122.6175         calculate D2E/DX2 analytically  !
 ! A29   A(8,7,26)             122.9542         calculate D2E/DX2 analytically  !
 ! A30   A(1,8,7)              113.8004         calculate D2E/DX2 analytically  !
 ! A31   A(1,8,9)              127.9382         calculate D2E/DX2 analytically  !
 ! A32   A(7,8,9)              118.2401         calculate D2E/DX2 analytically  !
 ! A33   A(8,9,10)             116.6531         calculate D2E/DX2 analytically  !
 ! A34   A(8,9,28)             122.5689         calculate D2E/DX2 analytically  !
 ! A35   A(10,9,28)            120.7779         calculate D2E/DX2 analytically  !
 ! A36   A(6,11,29)            105.3467         calculate D2E/DX2 analytically  !
 ! A37   A(13,12,16)           120.2195         calculate D2E/DX2 analytically  !
 ! A38   A(13,12,21)           120.182          calculate D2E/DX2 analytically  !
 ! A39   A(16,12,21)           119.5936         calculate D2E/DX2 analytically  !
 ! A40   A(12,13,14)           120.0394         calculate D2E/DX2 analytically  !
 ! A41   A(12,13,17)           119.9724         calculate D2E/DX2 analytically  !
 ! A42   A(14,13,17)           119.9756         calculate D2E/DX2 analytically  !
 ! A43   A(13,14,15)           120.1921         calculate D2E/DX2 analytically  !
 ! A44   A(13,14,18)           120.1928         calculate D2E/DX2 analytically  !
 ! A45   A(15,14,18)           119.6135         calculate D2E/DX2 analytically  !
 ! A46   A(4,15,14)            119.4507         calculate D2E/DX2 analytically  !
 ! A47   A(4,15,19)            120.4674         calculate D2E/DX2 analytically  !
 ! A48   A(14,15,19)           120.0817         calculate D2E/DX2 analytically  !
 ! A49   A(4,16,12)            119.3931         calculate D2E/DX2 analytically  !
 ! A50   A(4,16,20)            120.4926         calculate D2E/DX2 analytically  !
 ! A51   A(12,16,20)           120.1142         calculate D2E/DX2 analytically  !
 ! A52   A(7,26,27)            118.3434         calculate D2E/DX2 analytically  !
 ! A53   A(7,26,31)            119.7257         calculate D2E/DX2 analytically  !
 ! A54   A(27,26,31)           121.9308         calculate D2E/DX2 analytically  !
 ! A55   A(26,27,28)           118.9333         calculate D2E/DX2 analytically  !
 ! A56   A(26,27,32)           120.3574         calculate D2E/DX2 analytically  !
 ! A57   A(28,27,32)           120.7093         calculate D2E/DX2 analytically  !
 ! A58   A(9,28,27)            118.9584         calculate D2E/DX2 analytically  !
 ! A59   A(9,28,33)            119.6579         calculate D2E/DX2 analytically  !
 ! A60   A(27,28,33)           121.3836         calculate D2E/DX2 analytically  !
 ! A61   A(11,29,30)           104.0309         calculate D2E/DX2 analytically  !
 ! A62   A(11,29,34)           107.4993         calculate D2E/DX2 analytically  !
 ! A63   A(11,29,35)           106.9625         calculate D2E/DX2 analytically  !
 ! A64   A(30,29,34)           113.9531         calculate D2E/DX2 analytically  !
 ! A65   A(30,29,35)           113.9114         calculate D2E/DX2 analytically  !
 ! A66   A(34,29,35)           109.8805         calculate D2E/DX2 analytically  !
 ! A67   A(5,30,29)            101.9659         calculate D2E/DX2 analytically  !
 ! A68   A(5,30,36)            108.9            calculate D2E/DX2 analytically  !
 ! A69   A(5,30,37)            109.9708         calculate D2E/DX2 analytically  !
 ! A70   A(29,30,36)           111.8301         calculate D2E/DX2 analytically  !
 ! A71   A(29,30,37)           113.2182         calculate D2E/DX2 analytically  !
 ! A72   A(36,30,37)           110.5682         calculate D2E/DX2 analytically  !
 ! A73   A(30,37,38)           110.4825         calculate D2E/DX2 analytically  !
 ! A74   A(30,37,39)           110.7986         calculate D2E/DX2 analytically  !
 ! A75   A(30,37,40)           110.4479         calculate D2E/DX2 analytically  !
 ! A76   A(38,37,39)           108.247          calculate D2E/DX2 analytically  !
 ! A77   A(38,37,40)           108.3622         calculate D2E/DX2 analytically  !
 ! A78   A(39,37,40)           108.4221         calculate D2E/DX2 analytically  !
 ! A79   L(2,1,5,8,-1)         174.3618         calculate D2E/DX2 analytically  !
 ! A80   L(4,1,8,3,-1)         189.6094         calculate D2E/DX2 analytically  !
 ! A81   L(2,1,5,8,-2)         176.5095         calculate D2E/DX2 analytically  !
 ! A82   L(4,1,8,3,-2)         177.9802         calculate D2E/DX2 analytically  !
 ! D1    D(4,1,2,24)          -113.789          calculate D2E/DX2 analytically  !
 ! D2    D(4,1,2,25)           122.4469         calculate D2E/DX2 analytically  !
 ! D3    D(8,1,2,24)            67.1544         calculate D2E/DX2 analytically  !
 ! D4    D(8,1,2,25)           -56.6096         calculate D2E/DX2 analytically  !
 ! D5    D(24,2,5,6)            70.4841         calculate D2E/DX2 analytically  !
 ! D6    D(24,2,5,30)         -111.3904         calculate D2E/DX2 analytically  !
 ! D7    D(25,2,5,6)           -51.8972         calculate D2E/DX2 analytically  !
 ! D8    D(25,2,5,30)          126.2283         calculate D2E/DX2 analytically  !
 ! D9    D(4,1,3,22)            74.1783         calculate D2E/DX2 analytically  !
 ! D10   D(4,1,3,23)           -65.7387         calculate D2E/DX2 analytically  !
 ! D11   D(5,1,3,22)            61.359          calculate D2E/DX2 analytically  !
 ! D12   D(5,1,3,23)           -78.558          calculate D2E/DX2 analytically  !
 ! D13   D(8,1,3,22)          -103.8019         calculate D2E/DX2 analytically  !
 ! D14   D(8,1,3,23)           116.2811         calculate D2E/DX2 analytically  !
 ! D15   D(2,1,4,15)           100.0607         calculate D2E/DX2 analytically  !
 ! D16   D(2,1,4,16)          -108.735          calculate D2E/DX2 analytically  !
 ! D17   D(3,1,4,15)           103.1769         calculate D2E/DX2 analytically  !
 ! D18   D(3,1,4,16)          -105.6189         calculate D2E/DX2 analytically  !
 ! D19   D(5,1,4,15)           -83.4352         calculate D2E/DX2 analytically  !
 ! D20   D(5,1,4,16)            67.7691         calculate D2E/DX2 analytically  !
 ! D21   D(15,4,8,7)           -84.4459         calculate D2E/DX2 analytically  !
 ! D22   D(15,4,8,9)            97.2465         calculate D2E/DX2 analytically  !
 ! D23   D(16,4,8,7)            62.2044         calculate D2E/DX2 analytically  !
 ! D24   D(16,4,8,9)          -116.1032         calculate D2E/DX2 analytically  !
 ! D25   D(3,1,5,6)           -164.5993         calculate D2E/DX2 analytically  !
 ! D26   D(3,1,5,30)            15.9859         calculate D2E/DX2 analytically  !
 ! D27   D(4,1,5,6)           -175.1975         calculate D2E/DX2 analytically  !
 ! D28   D(4,1,5,30)             5.3877         calculate D2E/DX2 analytically  !
 ! D29   D(8,1,5,6)              4.4478         calculate D2E/DX2 analytically  !
 ! D30   D(8,1,5,30)          -174.967          calculate D2E/DX2 analytically  !
 ! D31   D(2,1,8,7)            172.9004         calculate D2E/DX2 analytically  !
 ! D32   D(2,1,8,9)             -5.3742         calculate D2E/DX2 analytically  !
 ! D33   D(3,1,8,7)            168.556          calculate D2E/DX2 analytically  !
 ! D34   D(3,1,8,9)             -9.7185         calculate D2E/DX2 analytically  !
 ! D35   D(5,1,8,7)             -3.6091         calculate D2E/DX2 analytically  !
 ! D36   D(5,1,8,9)            178.1163         calculate D2E/DX2 analytically  !
 ! D37   D(24,2,3,22)         -151.4481         calculate D2E/DX2 analytically  !
 ! D38   D(24,2,3,23)           -3.5954         calculate D2E/DX2 analytically  !
 ! D39   D(25,2,3,22)            0.2942         calculate D2E/DX2 analytically  !
 ! D40   D(25,2,3,23)          148.1469         calculate D2E/DX2 analytically  !
 ! D41   D(1,4,15,14)          147.7713         calculate D2E/DX2 analytically  !
 ! D42   D(1,4,15,19)          -32.3945         calculate D2E/DX2 analytically  !
 ! D43   D(16,4,15,14)          -1.8724         calculate D2E/DX2 analytically  !
 ! D44   D(16,4,15,19)         177.9619         calculate D2E/DX2 analytically  !
 ! D45   D(1,4,16,12)         -147.9418         calculate D2E/DX2 analytically  !
 ! D46   D(1,4,16,20)           31.9796         calculate D2E/DX2 analytically  !
 ! D47   D(15,4,16,12)           2.0973         calculate D2E/DX2 analytically  !
 ! D48   D(15,4,16,20)        -177.9813         calculate D2E/DX2 analytically  !
 ! D49   D(1,5,6,7)             -4.9675         calculate D2E/DX2 analytically  !
 ! D50   D(1,5,6,11)           175.5541         calculate D2E/DX2 analytically  !
 ! D51   D(30,5,6,7)           174.6421         calculate D2E/DX2 analytically  !
 ! D52   D(30,5,6,11)           -4.8364         calculate D2E/DX2 analytically  !
 ! D53   D(1,5,30,29)         -166.5628         calculate D2E/DX2 analytically  !
 ! D54   D(1,5,30,36)          -48.2465         calculate D2E/DX2 analytically  !
 ! D55   D(1,5,30,37)           73.0534         calculate D2E/DX2 analytically  !
 ! D56   D(6,5,30,29)           14.0032         calculate D2E/DX2 analytically  !
 ! D57   D(6,5,30,36)          132.3194         calculate D2E/DX2 analytically  !
 ! D58   D(6,5,30,37)         -106.3806         calculate D2E/DX2 analytically  !
 ! D59   D(5,6,7,8)              1.8415         calculate D2E/DX2 analytically  !
 ! D60   D(5,6,7,26)          -177.6829         calculate D2E/DX2 analytically  !
 ! D61   D(11,6,7,8)          -178.6861         calculate D2E/DX2 analytically  !
 ! D62   D(11,6,7,26)            1.7896         calculate D2E/DX2 analytically  !
 ! D63   D(5,6,11,29)           -7.4444         calculate D2E/DX2 analytically  !
 ! D64   D(7,6,11,29)          173.0612         calculate D2E/DX2 analytically  !
 ! D65   D(6,7,8,1)              2.3547         calculate D2E/DX2 analytically  !
 ! D66   D(6,7,8,9)           -179.19           calculate D2E/DX2 analytically  !
 ! D67   D(26,7,8,1)          -178.1228         calculate D2E/DX2 analytically  !
 ! D68   D(26,7,8,9)             0.3326         calculate D2E/DX2 analytically  !
 ! D69   D(6,7,26,27)          179.0609         calculate D2E/DX2 analytically  !
 ! D70   D(6,7,26,31)           -0.811          calculate D2E/DX2 analytically  !
 ! D71   D(8,7,26,27)           -0.4229         calculate D2E/DX2 analytically  !
 ! D72   D(8,7,26,31)          179.7051         calculate D2E/DX2 analytically  !
 ! D73   D(1,8,9,10)            -1.8485         calculate D2E/DX2 analytically  !
 ! D74   D(1,8,9,28)           178.2652         calculate D2E/DX2 analytically  !
 ! D75   D(7,8,9,10)           179.9435         calculate D2E/DX2 analytically  !
 ! D76   D(7,8,9,28)             0.0572         calculate D2E/DX2 analytically  !
 ! D77   D(8,9,28,27)           -0.3391         calculate D2E/DX2 analytically  !
 ! D78   D(8,9,28,33)          179.7716         calculate D2E/DX2 analytically  !
 ! D79   D(10,9,28,27)         179.7792         calculate D2E/DX2 analytically  !
 ! D80   D(10,9,28,33)          -0.1101         calculate D2E/DX2 analytically  !
 ! D81   D(6,11,29,30)          15.5519         calculate D2E/DX2 analytically  !
 ! D82   D(6,11,29,34)         136.7212         calculate D2E/DX2 analytically  !
 ! D83   D(6,11,29,35)        -105.3129         calculate D2E/DX2 analytically  !
 ! D84   D(16,12,13,14)         -0.3077         calculate D2E/DX2 analytically  !
 ! D85   D(16,12,13,17)       -179.0182         calculate D2E/DX2 analytically  !
 ! D86   D(21,12,13,14)        178.8818         calculate D2E/DX2 analytically  !
 ! D87   D(21,12,13,17)          0.1713         calculate D2E/DX2 analytically  !
 ! D88   D(13,12,16,4)          -0.9975         calculate D2E/DX2 analytically  !
 ! D89   D(13,12,16,20)        179.0807         calculate D2E/DX2 analytically  !
 ! D90   D(21,12,16,4)         179.8082         calculate D2E/DX2 analytically  !
 ! D91   D(21,12,16,20)         -0.1136         calculate D2E/DX2 analytically  !
 ! D92   D(12,13,14,15)          0.5364         calculate D2E/DX2 analytically  !
 ! D93   D(12,13,14,18)       -178.9969         calculate D2E/DX2 analytically  !
 ! D94   D(17,13,14,15)        179.2468         calculate D2E/DX2 analytically  !
 ! D95   D(17,13,14,18)         -0.2865         calculate D2E/DX2 analytically  !
 ! D96   D(13,14,15,4)           0.5449         calculate D2E/DX2 analytically  !
 ! D97   D(13,14,15,19)       -179.29           calculate D2E/DX2 analytically  !
 ! D98   D(18,14,15,4)        -179.9191         calculate D2E/DX2 analytically  !
 ! D99   D(18,14,15,19)          0.246          calculate D2E/DX2 analytically  !
 ! D100  D(7,26,27,28)           0.1235         calculate D2E/DX2 analytically  !
 ! D101  D(7,26,27,32)        -179.8421         calculate D2E/DX2 analytically  !
 ! D102  D(31,26,27,28)        179.9925         calculate D2E/DX2 analytically  !
 ! D103  D(31,26,27,32)          0.0269         calculate D2E/DX2 analytically  !
 ! D104  D(26,27,28,9)           0.2356         calculate D2E/DX2 analytically  !
 ! D105  D(26,27,28,33)       -179.877          calculate D2E/DX2 analytically  !
 ! D106  D(32,27,28,9)        -179.7989         calculate D2E/DX2 analytically  !
 ! D107  D(32,27,28,33)          0.0885         calculate D2E/DX2 analytically  !
 ! D108  D(11,29,30,5)         -17.6897         calculate D2E/DX2 analytically  !
 ! D109  D(11,29,30,36)       -133.8949         calculate D2E/DX2 analytically  !
 ! D110  D(11,29,30,37)        100.3972         calculate D2E/DX2 analytically  !
 ! D111  D(34,29,30,5)        -134.4441         calculate D2E/DX2 analytically  !
 ! D112  D(34,29,30,36)        109.3507         calculate D2E/DX2 analytically  !
 ! D113  D(34,29,30,37)        -16.3572         calculate D2E/DX2 analytically  !
 ! D114  D(35,29,30,5)          98.3982         calculate D2E/DX2 analytically  !
 ! D115  D(35,29,30,36)        -17.8069         calculate D2E/DX2 analytically  !
 ! D116  D(35,29,30,37)       -143.5149         calculate D2E/DX2 analytically  !
 ! D117  D(5,30,37,38)        -178.5248         calculate D2E/DX2 analytically  !
 ! D118  D(5,30,37,39)         -58.5626         calculate D2E/DX2 analytically  !
 ! D119  D(5,30,37,40)          61.5962         calculate D2E/DX2 analytically  !
 ! D120  D(29,30,37,38)         68.1517         calculate D2E/DX2 analytically  !
 ! D121  D(29,30,37,39)       -171.8861         calculate D2E/DX2 analytically  !
 ! D122  D(29,30,37,40)        -51.7273         calculate D2E/DX2 analytically  !
 ! D123  D(36,30,37,38)        -58.2288         calculate D2E/DX2 analytically  !
 ! D124  D(36,30,37,39)         61.7334         calculate D2E/DX2 analytically  !
 ! D125  D(36,30,37,40)       -178.1078         calculate D2E/DX2 analytically  !
 --------------------------------------------------------------------------------
 Trust Radius=3.00D-01 FncErr=1.00D-07 GrdErr=1.00D-07
 Number of steps in this run=      2 maximum allowed number of steps=      2.
 GradGradGradGradGradGradGradGradGradGradGradGradGradGradGradGradGradGrad

 Leave Link  103 at Thu Jun  2 14:55:25 2016, MaxMem=   268435456 cpu:         0.1
 (Enter /afs/crc.nd.edu/x86_64_linux/gaussian/09D01/pgi12.8/g09/l202.exe)
                          Input orientation:                          
 ---------------------------------------------------------------------
 Center     Atomic      Atomic             Coordinates (Angstroms)
 Number     Number       Type             X           Y           Z
 ---------------------------------------------------------------------
      1         46           0       -0.072428   -0.947746    0.000770
      2          6           0       -0.115131   -3.031060   -0.042251
      3          6           0       -1.498487   -2.817815   -0.207331
      4          6           0       -2.150312   -0.830427   -0.091512
      5          7           0        0.190631    1.218027   -0.077571
      6          6           0        1.425431    1.559834   -0.139136
      7          6           0        2.515968    0.583993   -0.046319
      8          7           0        2.108926   -0.699907    0.069077
      9          6           0        3.038919   -1.649454    0.175589
     10          1           0        2.682501   -2.673876    0.268082
     11          8           0        1.713856    2.848420   -0.282033
     12          6           0       -3.859582    0.364294   -1.298176
     13          6           0       -4.526391    0.615818   -0.099258
     14          6           0       -4.011615    0.128308    1.101287
     15          6           0       -2.824306   -0.601861    1.109780
     16          6           0       -2.673910   -0.368977   -1.301175
     17          1           0       -5.460127    1.175026   -0.103345
     18          1           0       -4.538809    0.309292    2.036924
     19          1           0       -2.429157   -0.992408    2.048826
     20          1           0       -2.161669   -0.577514   -2.241566
     21          1           0       -4.269164    0.728429   -2.239348
     22          1           0       -1.935921   -2.934558   -1.197312
     23          1           0       -2.169410   -3.061655    0.613228
     24          1           0        0.255708   -3.379507    0.924873
     25          1           0        0.486074   -3.303812   -0.913280
     26          6           0        3.852450    0.952706   -0.065273
     27          6           0        4.816334   -0.047296    0.048600
     28          6           0        4.403672   -1.366616    0.173271
     29          6           0        0.435107    3.506674   -0.508883
     30          6           0       -0.605081    2.460654   -0.073867
     31          1           0        4.121047    2.001767   -0.165189
     32          1           0        5.874368    0.205407    0.040144
     33          1           0        5.121299   -2.177830    0.266672
     34          1           0        0.424297    4.420613    0.092478
     35          1           0        0.390847    3.760851   -1.574019
     36          1           0       -1.418190    2.364535   -0.805606
     37          6           0       -1.164309    2.714176    1.314715
     38          1           0       -1.779409    3.622738    1.320910
     39          1           0       -1.788542    1.874914    1.642061
     40          1           0       -0.348142    2.843565    2.039713
 ---------------------------------------------------------------------
                    Distance matrix (angstroms):
                    1          2          3          4          5
     1  Pd   0.000000
     2  C    2.084196   0.000000
     3  C    2.360955   1.409397   0.000000
     4  C    2.083238   2.997862   2.094756   0.000000
     5  N    2.183097   4.260221   4.376983   3.110687   0.000000
     6  C    2.924228   4.843452   5.264766   4.301343   1.282713
     7  C    3.008029   4.471164   5.264416   4.876145   2.410429
     8  N    2.196451   3.223833   4.192298   4.264262   2.716586
     9  C    3.194282   3.450264   4.701037   5.260253   4.049603
    10  H    3.261995   2.837363   4.210391   5.184948   4.634199
    11  O    4.204957   6.162059   6.513904   5.338727   2.240580
    12  C    4.213223   5.208329   4.109809   2.409357   4.315433
    13  C    4.721496   5.723827   4.579271   2.781625   4.755357
    14  C    4.229211   5.145083   4.087534   2.409646   4.498451
    15  C    2.987034   3.816781   2.898798   1.396286   3.716401
    16  C    2.966099   3.901145   2.928297   1.396558   3.495909
    17  H    5.791744   6.801756   5.625672   3.869995   5.650980
    18  H    5.067014   5.920292   4.905002   3.396192   5.259705
    19  H    3.122611   3.726047   3.047705   2.164496   4.033718
    20  H    3.087081   3.878813   3.097881   2.164908   3.666081
    21  H    5.043837   6.018055   4.937772   3.395993   4.980237
    22  H    2.975807   2.158415   1.088595   2.386655   4.797917
    23  H    3.039909   2.156537   1.087618   2.339957   4.935856
    24  H    2.622041   1.092824   2.162078   3.649627   4.706001
    25  H    2.588138   1.092947   2.161721   3.707218   4.607898
    26  C    4.361278   5.622510   6.547483   6.262060   3.671439
    27  C    4.971226   5.764586   6.900597   7.011924   4.797301
    28  C    4.498964   4.820415   6.089854   6.581209   4.949042
    29  C    4.512116   6.577422   6.620338   5.066461   2.341730
    30  C    3.450577   5.513618   5.355206   3.635831   1.475565
    31  H    5.129561   6.579488   7.403331   6.881620   4.008752
    32  H    6.057697   6.808495   7.972459   8.092328   5.774437
    33  H    5.344026   5.314474   6.667520   7.404061   5.996819
    34  H    5.392070   7.472387   7.495454   5.851144   3.215598
    35  H    4.986529   6.980858   6.979704   5.452994   2.957261
    36  H    3.665041   5.602957   5.217388   3.354656   2.105426
    37  C    4.040832   5.995821   5.747280   3.938767   2.452098
    38  H    5.054293   6.992930   6.625343   4.686490   3.408730
    39  H    3.688670   5.450302   5.052335   3.233422   2.702917
    40  H    4.313623   6.236994   6.198687   4.613909   2.723149
                    6          7          8          9         10
     6  C    0.000000
     7  C    1.466340   0.000000
     8  N    2.370010   1.351813   0.000000
     9  C    3.605818   2.304562   1.333368   0.000000
    10  H    4.435127   3.277238   2.065222   1.088590   0.000000
    11  O    1.328180   2.413830   3.587476   4.711272   5.633529
    12  C    5.541124   6.501004   6.214901   7.335971   7.381225
    13  C    6.026354   7.042630   6.766602   7.901956   7.932537
    14  C    5.757550   6.643342   6.261983   7.329897   7.304632
    15  C    4.928790   5.591184   5.042763   6.028894   5.943620
    16  C    4.677098   5.423804   4.986244   6.037952   6.038730
    17  H    6.896395   7.998167   7.799723   8.960428   9.014122
    18  H    6.470800   7.361063   7.005947   8.045074   8.010956
    19  H    5.114584   5.597226   4.959755   5.817266   5.668106
    20  H    4.675014   5.296083   4.857163   5.834192   5.844574
    21  H    6.126217   7.132199   6.931739   8.055701   8.135633
    22  H    5.711216   5.790018   4.791471   5.318400   4.852335
    23  H    5.903142   5.973150   4.917124   5.414104   4.879604
    24  H    5.186275   4.664903   3.368540   3.361662   2.611247
    25  H    5.013655   4.470695   3.221644   3.231029   2.572300
    26  C    2.502894   1.386539   2.406045   2.736985   3.825180
    27  C    3.757171   2.387304   2.785027   2.396298   3.391215
    28  C    4.187078   2.723329   2.391906   1.393755   2.163411
    29  C    2.215319   3.617459   4.564103   5.816700   6.622209
    30  C    2.222322   3.641917   4.168383   5.498541   6.106433
    31  H    2.731726   2.144876   3.376767   3.823421   4.911087
    32  H    4.653993   3.380777   3.872852   3.390963   4.304677
    33  H    5.272025   3.809643   3.361203   2.150299   2.488735
    34  H    3.039732   4.371957   5.390571   6.609756   7.447288
    35  H    2.823779   4.116119   5.054693   6.272544   7.074653
    36  H    3.029506   4.384569   4.753570   6.077884   6.584380
    37  C    3.186368   4.464811   4.890976   6.164901   6.702573
    38  H    4.081459   5.436318   5.947395   7.233537   7.788738
    39  H    3.688029   4.800616   4.928919   6.154355   6.524532
    40  H    3.088836   4.202419   4.740969   5.927424   6.539543
                   11         12         13         14         15
    11  O    0.000000
    12  C    6.186004   0.000000
    13  C    6.630128   1.394742   0.000000
    14  C    6.487958   2.415828   1.394262   0.000000
    15  C    5.868261   2.793476   2.416942   1.393888   0.000000
    16  C    5.535593   1.394099   2.417873   2.794381   2.426841
    17  H    7.368732   2.155610   1.088390   2.155213   3.402434
    18  H    7.135864   3.404008   2.158098   1.089085   2.151585
    19  H    6.111418   3.884480   3.405738   2.158243   1.091090
    20  H    5.531409   2.158679   3.406676   3.885247   3.416314
    21  H    6.642437   1.089108   2.158433   3.403868   3.882518
    22  H    6.899380   3.820088   4.530059   4.355825   3.399026
    23  H    7.128129   4.271682   4.425698   3.715883   2.593461
    24  H    6.509216   5.991127   6.315056   5.526837   4.151625
    25  H    6.305226   5.699813   6.414900   6.005592   4.727782
    26  C    2.866060   7.832095   8.385679   7.992747   6.955321
    27  C    4.256743   8.789467   9.367395   8.892225   7.733888
    28  C    5.020850   8.569864   9.151521   8.597271   7.328407
    29  C    1.456008   5.379766   5.756848   5.811999   5.488524
    30  C    2.360331   4.060226   4.333675   4.292470   3.962951
    31  H    2.554416   8.225291   8.758046   8.441208   7.526111
    32  H    4.939552   9.826807  10.409787   9.943069   8.801291
    33  H    6.097125   9.464004  10.050686   9.456478   8.144148
    34  H    2.067610   6.061292   6.246802   6.254509   6.067418
    35  H    2.062065   5.447828   6.020413   6.303514   6.047581
    36  H    3.212162   3.194368   3.635636   3.919541   3.800706
    37  C    3.294156   4.428729   4.207852   3.852196   3.713985
    38  H    3.920701   4.669496   4.313277   4.152351   4.357020
    39  H    4.112985   3.900791   3.480421   2.878389   2.736885
    40  H    3.105216   5.442288   5.195750   4.655566   4.343629
                   16         17         18         19         20
    16  C    0.000000
    17  H    3.403196   0.000000
    18  H    3.883401   2.485774   0.000000
    19  H    3.416296   4.303068   2.478951   0.000000
    20  H    1.090970   4.303860   4.974203   4.318698   0.000000
    21  H    2.151582   2.486031   4.305216   4.973464   2.479320
    22  H    2.671633   5.523176   5.268574   3.814792   2.587873
    23  H    3.342150   5.412186   4.359386   2.531835   3.784291
    24  H    4.754076   7.380499   6.150714   3.764307   4.870442
    25  H    4.330036   7.488210   6.856215   4.755548   4.025864
    26  C    6.772568   9.315308   8.674471   6.907349   6.576279
    27  C    7.617685  10.350015   9.570752   7.575704   7.363322
    28  C    7.298044  10.189749   9.287079   7.095441   7.039731
    29  C    5.031340   6.352545   6.437719   5.915033   5.140625
    30  C    3.713913   5.022468   4.955605   4.444854   4.043804
    31  H    7.285762   9.616976   9.094332   7.534728   7.101869
    32  H    8.671915  11.376798  10.603404   8.626592   8.390295
    33  H    8.154470  11.106085  10.131005   7.847973   7.867267
    34  H    5.872080   6.722992   6.731734   6.424196   6.092311
    35  H    5.150015   6.563785   7.018096   6.608396   5.077634
    36  H    3.048690   4.271458   4.694919   4.520941   3.357141
    37  C    4.315971   4.778486   4.206222   3.984661   4.947432
    38  H    4.858936   4.644081   4.371029   4.717162   5.520822
    39  H    3.805464   4.125145   3.189210   2.966038   4.608273
    40  H    5.185668   5.788706   4.897370   4.364103   5.772522
                   21         22         23         24         25
    21  H    0.000000
    22  H    4.466244   0.000000
    23  H    5.187571   1.829952   0.000000
    24  H    6.881998   3.082999   2.465634   0.000000
    25  H    6.374144   2.466391   3.072534   1.854078   0.000000
    26  C    8.410560   7.063821   7.268992   5.717081   5.492681
    27  C    9.401209   7.448593   7.629272   5.715837   5.502841
    28  C    9.242728   6.672884   6.802361   4.671428   4.503431
    29  C    5.730909   6.898201   7.154410   7.036144   6.822672
    30  C    4.595152   5.669355   5.780581   5.987146   5.926576
    31  H    8.736084   7.881589   8.112584   6.714700   6.474707
    32  H   10.409653   8.508307   8.700832   6.723369   6.500565
    33  H   10.144323   7.247085   7.352257   5.054823   4.913800
    34  H    6.410789   7.831522   7.936172   7.846220   7.789872
    35  H    5.599460   7.098187   7.608255   7.566203   7.096133
    36  H    3.586156   5.338714   5.658706   6.228203   5.980633
    37  C    5.120028   6.230077   5.904450   6.269082   6.626002
    38  H    5.220283   7.025957   6.733055   7.302738   7.622409
    39  H    4.746920   5.587019   5.057001   5.683506   6.206677
    40  H    6.177263   6.810732   6.342199   6.350915   6.870686
                   26         27         28         29         30
    26  C    0.000000
    27  C    1.393573   0.000000
    28  C    2.395831   1.387962   0.000000
    29  C    4.289263   5.668919   6.321692   0.000000
    30  C    4.705694   5.974659   6.308460   1.537981   0.000000
    31  H    1.087500   2.174348   3.397122   3.996126   4.749231
    32  H    2.158176   1.087826   2.156832   6.386341   6.861661
    33  H    3.394175   2.163269   1.087097   7.407798   7.377189
    34  H    4.878882   6.265311   7.023814   1.094092   2.220073
    35  H    4.705814   6.059687   6.741417   1.095938   2.220999
    36  H    5.506451   6.739131   6.983822   2.197097   1.098102
    37  C    5.493179   6.707970   6.997011   2.551802   1.518279
    38  H    6.385014   7.654525   8.027529   2.875011   2.162149
    39  H    5.965420   7.061048   7.142014   3.497687   2.165198
    40  H    5.064710   6.244471   6.617323   2.747459   2.163299
                   31         32         33         34         35
    31  H    0.000000
    32  H    2.518572   0.000000
    33  H    4.319264   2.509631   0.000000
    34  H    4.425287   6.890136   8.101334   0.000000
    35  H    4.358161   6.731694   7.812378   1.792657   0.000000
    36  H    5.587923   7.652355   8.034163   2.903234   2.410969
    37  C    5.534675   7.580331   8.033616   2.632387   3.443664
    38  H    6.296937   8.479317   9.076220   2.646123   3.620732
    39  H    6.181058   8.004597   8.127873   3.711933   4.318526
    40  H    5.054094   7.048247   7.633666   2.622111   3.800866
                   36         37         38         39         40
    36  H    0.000000
    37  C    2.163900   0.000000
    38  H    2.497123   1.097211   0.000000
    39  H    2.523482   1.095985   1.777108   0.000000
    40  H    3.077387   1.099314   1.781099   1.780776   0.000000
 Stoichiometry    C17H19N2OPd(1+)
 Framework group  C1[X(C17H19N2OPd)]
 Deg. of freedom   114
 Full point group                 C1      NOp   1
 RotChk:  IX=0 Diff= 2.68D-16
 Largest Abelian subgroup         C1      NOp   1
 Largest concise Abelian subgroup C1      NOp   1
                         Standard orientation:                         
 ---------------------------------------------------------------------
 Center     Atomic      Atomic             Coordinates (Angstroms)
 Number     Number       Type             X           Y           Z
 ---------------------------------------------------------------------
      1         46           0       -0.072356   -0.948014    0.005811
      2          6           0       -0.116297   -3.031512   -0.025454
      3          6           0       -1.499800   -2.818408   -0.189480
      4          6           0       -2.150322   -0.830031   -0.083752
      5          7           0        0.191788    1.217136   -0.085104
      6          6           0        1.426678    1.557889   -0.150591
      7          6           0        2.516818    0.581963   -0.054074
      8          7           0        2.109245   -0.701038    0.069183
      9          6           0        3.038877   -1.650502    0.179509
     10          1           0        2.682036   -2.674186    0.278326
     11          8           0        1.715592    2.845489   -0.301182
     12          6           0       -3.860884    0.358877   -1.294320
     13          6           0       -4.525599    0.617502   -0.095750
     14          6           0       -4.009144    0.136439    1.106672
     15          6           0       -2.822231   -0.594347    1.117333
     16          6           0       -2.675629   -0.375074   -1.295132
     17          1           0       -5.459028    1.177209   -0.101457
     18          1           0       -4.534713    0.322968    2.042135
     19          1           0       -2.425774   -0.979847    2.057912
     20          1           0       -2.165036   -0.589174   -2.235169
     21          1           0       -4.271793    0.717961   -2.236853
     22          1           0       -1.938910   -2.940452   -1.178078
     23          1           0       -2.169523   -3.057259    0.633523
     24          1           0        0.255920   -3.374740    0.943006
     25          1           0        0.483337   -3.309486   -0.895915
     26          6           0        3.853473    0.949803   -0.077266
     27          6           0        4.816981   -0.050094    0.040648
     28          6           0        4.403783   -1.368459    0.173388
     29          6           0        0.436844    3.503188   -0.529643
     30          6           0       -0.603220    2.460217   -0.087078
     31          1           0        4.122495    1.998134   -0.183501
     32          1           0        5.875141    0.201955    0.029057
     33          1           0        5.121106   -2.179545    0.270173
     34          1           0        0.427525    4.420491    0.066599
     35          1           0        0.390993    3.751413   -1.596115
     36          1           0       -1.417573    2.360459   -0.816944
     37          6           0       -1.160045    2.721841    1.300967
     38          1           0       -1.774625    3.630774    1.303065
     39          1           0       -1.784215    1.884783    1.634029
     40          1           0       -0.342627    2.854829    2.023902
 ---------------------------------------------------------------------
 Rotational constants (GHZ):      0.4429032      0.2266444      0.1625672
 Leave Link  202 at Thu Jun  2 14:55:25 2016, MaxMem=   268435456 cpu:         0.3
 (Enter /afs/crc.nd.edu/x86_64_linux/gaussian/09D01/pgi12.8/g09/l301.exe)
 Basis read from chk: "/scratch/Gau-22122.chk" (5D, 7F)
 Pseudo-potential data read from chk file.
 There are   442 symmetry adapted cartesian basis functions of A   symmetry.
 There are   420 symmetry adapted basis functions of A   symmetry.
   420 basis functions,   765 primitive gaussians,   442 cartesian basis functions
    80 alpha electrons       80 beta electrons
       nuclear repulsion energy      1880.6603062402 Hartrees.
 IExCor= 4235 DFT=T Ex+Corr=M06 ExCW=0 ScaHFX=  0.270000
 ScaDFX=  1.000000  1.000000  1.000000  1.000000 ScalE2=  1.000000  1.000000
 IRadAn=      5 IRanWt=     -1 IRanGd=            0 ICorTp=0 IEmpDi=131
 NAtoms=   40 NActive=   40 NUniq=   40 SFac= 1.00D+00 NAtFMM=   60 NAOKFM=F Big=F
 Integral buffers will be    131072 words long.
 Raffenetti 2 integral format.
 Two-electron integral symmetry is turned on.
 R6Disp:  Grimme-D3 Dispersion energy=       -0.0081358391 Hartrees.
 Nuclear repulsion after empirical dispersion term =     1880.6521704011 Hartrees.
 No density basis found on file 20724.
 Leave Link  301 at Thu Jun  2 14:55:25 2016, MaxMem=   268435456 cpu:         0.8
 (Enter /afs/crc.nd.edu/x86_64_linux/gaussian/09D01/pgi12.8/g09/l302.exe)
 NPDir=0 NMtPBC=     1 NCelOv=     1 NCel=       1 NClECP=     1 NCelD=      1
         NCelK=      1 NCelE2=     1 NClLst=     1 CellRange=     0.0.
 One-electron integrals computed using PRISM.
   1 Symmetry operations used in ECPInt.
 ECPInt:  NShTT=   10731 NPrTT=   56041 LenC2=    9883 LenP2D=   32517.
 LDataN:  DoStor=T MaxTD1= 5 Len=  102
 NBasis=   420 RedAO= T EigKep=  2.08D-06  NBF=   420
 NBsUse=   419 1.00D-06 EigRej=  5.17D-07 NBFU=   419
 Precomputing XC quadrature grid using
 IXCGrd= 4 IRadAn=           5 IRanWt=          -1 IRanGd=           0 AccXCQ= 0.00D+00.
 Defaulting to unpruned grid for atomic number  46.
 Generated NRdTot=       0 NPtTot=           0 NUsed=           0 NTot=          32
 NSgBfM=   442   442   442   442   442 MxSgAt=    40 MxSgA2=    40.
 Leave Link  302 at Thu Jun  2 14:55:28 2016, MaxMem=   268435456 cpu:        20.6
 (Enter /afs/crc.nd.edu/x86_64_linux/gaussian/09D01/pgi12.8/g09/l303.exe)
 DipDrv:  MaxL=1.
 Leave Link  303 at Thu Jun  2 14:55:28 2016, MaxMem=   268435456 cpu:         0.6
 (Enter /afs/crc.nd.edu/x86_64_linux/gaussian/09D01/pgi12.8/g09/l401.exe)
 Initial guess from the checkpoint file:  "/scratch/Gau-22122.chk"
 B after Tr=     0.000000    0.000000    0.000000
         Rot=    1.000000    0.000000    0.000000    0.000000 Ang=   0.00 deg.
 Guess basis will be translated and rotated to current coordinates.
 JPrj=2 DoOrth=T DoCkMO=T.
 Leave Link  401 at Thu Jun  2 14:55:29 2016, MaxMem=   268435456 cpu:         7.0
 (Enter /afs/crc.nd.edu/x86_64_linux/gaussian/09D01/pgi12.8/g09/l502.exe)
 Closed shell SCF:
 Using DIIS extrapolation, IDIIS=  1040.
 Integral symmetry usage will be decided dynamically.
 IVT=      611476 IEndB=      611476 NGot=   268435456 MDV=   268036427
 LenX=   268036427 LenY=   267840621
 Requested convergence on RMS density matrix=1.00D-08 within 128 cycles.
 Requested convergence on MAX density matrix=1.00D-06.
 Requested convergence on             energy=1.00D-06.
 No special actions if energy rises.
 Fock matrices will be formed incrementally for  20 cycles.

 Cycle   1  Pass 1  IDiag  1:
 FoFJK:  IHMeth= 1 ICntrl=       0 DoSepK=F KAlg= 0 I1Cent=   0 FoldK=F
 IRaf= 840000000 NMat=   1 IRICut=       1 DoRegI=T DoRafI=F ISym2E= 0.
 FoFCou: FMM=F IPFlag=           0 FMFlag=      100000 FMFlg1=           0
         NFxFlg=           0 DoJE=F BraDBF=F KetDBF=F FulRan=T
         wScrn=  0.000000 ICntrl=       0 IOpCl=  0 I1Cent=           0 NGrid=           0
         NMat0=    1 NMatS0=      1 NMatT0=    0 NMatD0=    1 NMtDS0=    0 NMtDT0=    0
 Symmetry not used in FoFCou.
 Defaulting to unpruned grid for atomic number  46.
 Defaulting to unpruned grid for atomic number  46.
 Defaulting to unpruned grid for atomic number  46.
 Defaulting to unpruned grid for atomic number  46.
 Defaulting to unpruned grid for atomic number  46.
 Defaulting to unpruned grid for atomic number  46.
 Defaulting to unpruned grid for atomic number  46.
 Defaulting to unpruned grid for atomic number  46.
 E= -969.903286974622    
 DIIS: error= 8.76D-10 at cycle   1 NSaved=   1.
 NSaved= 1 IEnMin= 1 EnMin= -969.903286974622     IErMin= 1 ErrMin= 8.76D-10
 ErrMax= 8.76D-10  0.00D+00 EMaxC= 1.00D-01 BMatC= 1.30D-15 BMatP= 1.30D-15
 IDIUse=1 WtCom= 1.00D+00 WtEn= 0.00D+00
 Coeff-Com:  0.100D+01
 Coeff:      0.100D+01
 Gap=     0.156 Goal=   None    Shift=    0.000
 RMSDP=1.10D-08 MaxDP=1.03D-06              OVMax= 2.17D-08

 Cycle   2  Pass 1  IDiag  1:
 RMSU=  1.03D-08    CP:  1.00D+00
 E= -969.903286974767     Delta-E=       -0.000000000145 Rises=F Damp=F
 DIIS: error= 1.39D-09 at cycle   2 NSaved=   2.
 NSaved= 2 IEnMin= 2 EnMin= -969.903286974767     IErMin= 1 ErrMin= 8.76D-10
 ErrMax= 1.39D-09  0.00D+00 EMaxC= 1.00D-01 BMatC= 2.80D-15 BMatP= 1.30D-15
 IDIUse=1 WtCom= 1.00D+00 WtEn= 0.00D+00
 Coeff-Com:  0.598D+00 0.402D+00
 Coeff:      0.598D+00 0.402D+00
 Gap=     0.156 Goal=   None    Shift=    0.000
 RMSDP=1.23D-09 MaxDP=8.52D-08 DE=-1.45D-10 OVMax= 1.30D-08

 SCF Done:  E(RM06) =  -969.903286975     A.U. after    2 cycles
            NFock=  2  Conv=0.12D-08     -V/T= 2.0976
 KE= 8.836372261082D+02 PE=-5.969499728220D+03 EE= 2.235307044736D+03
 Leave Link  502 at Thu Jun  2 14:57:09 2016, MaxMem=   268435456 cpu:       794.5
 (Enter /afs/crc.nd.edu/x86_64_linux/gaussian/09D01/pgi12.8/g09/l801.exe)
 DoSCS=F DFT=T ScalE2(SS,OS)=  1.000000  1.000000
 Range of M.O.s used for correlation:     1   419
 NBasis=   420 NAE=    80 NBE=    80 NFC=     0 NFV=     0
 NROrb=    419 NOA=    80 NOB=    80 NVA=   339 NVB=   339

 **** Warning!!: The largest alpha MO coefficient is  0.13047193D+03

 Leave Link  801 at Thu Jun  2 14:57:09 2016, MaxMem=   268435456 cpu:         0.1
 (Enter /afs/crc.nd.edu/x86_64_linux/gaussian/09D01/pgi12.8/g09/l1101.exe)
 Using compressed storage, NAtomX=    40.
 Will process     41 centers per pass.
   1 Symmetry operations used in ECPInt.
 ECPInt:  NShTT=   10731 NPrTT=   56041 LenC2=    9883 LenP2D=   32517.
 LDataN:  DoStor=T MaxTD1= 6 Len=  172
 Number of processors reduced to   4 by ecpmxn.
 R6Disp: Adding Grimme-D3 dispersion energy 1st derivatives to the gradient.
 Leave Link 1101 at Thu Jun  2 14:57:11 2016, MaxMem=   268435456 cpu:        15.6
 (Enter /afs/crc.nd.edu/x86_64_linux/gaussian/09D01/pgi12.8/g09/l1102.exe)
 Symmetrizing basis deriv contribution to polar:
 IMax=3 JMax=2 DiffMx= 0.00D+00
 Leave Link 1102 at Thu Jun  2 14:57:11 2016, MaxMem=   268435456 cpu:         0.5
 (Enter /afs/crc.nd.edu/x86_64_linux/gaussian/09D01/pgi12.8/g09/l1110.exe)
 Forming Gx(P) for the SCF density, NAtomX=    40.
 Integral derivatives from FoFJK, PRISM(SPDF).
 Do as many integral derivatives as possible in FoFJK.
 G2DrvN: MDV=     268435032.
 G2DrvN: will do    41 centers at a time, making    1 passes.
 Calling FoFCou, ICntrl=  3107 FMM=F I1Cent=   0 AccDes= 0.00D+00.
 FoFJK:  IHMeth= 1 ICntrl=    3107 DoSepK=F KAlg= 0 I1Cent=   0 FoldK=F
 IRaf=         0 NMat=   1 IRICut=       1 DoRegI=T DoRafI=F ISym2E= 0.
 FoFCou: FMM=F IPFlag=           0 FMFlag=      100000 FMFlg1=           0
         NFxFlg=           0 DoJE=F BraDBF=F KetDBF=F FulRan=T
         wScrn=  0.000000 ICntrl=    3107 IOpCl=  0 I1Cent=           0 NGrid=           0
         NMat0=    1 NMatS0=      1 NMatT0=    0 NMatD0=    1 NMtDS0=    0 NMtDT0=    0
 Symmetry not used in FoFCou.
 Defaulting to unpruned grid for atomic number  46.
 Defaulting to unpruned grid for atomic number  46.
 Defaulting to unpruned grid for atomic number  46.
 Defaulting to unpruned grid for atomic number  46.
 Defaulting to unpruned grid for atomic number  46.
 Defaulting to unpruned grid for atomic number  46.
 Defaulting to unpruned grid for atomic number  46.
 Defaulting to unpruned grid for atomic number  46.
 End of G2Drv F.D. properties file   721 does not exist.
 End of G2Drv F.D. properties file   722 does not exist.
 End of G2Drv F.D. properties file   788 does not exist.
 Leave Link 1110 at Thu Jun  2 15:42:08 2016, MaxMem=   268435456 cpu:     21540.7
 (Enter /afs/crc.nd.edu/x86_64_linux/gaussian/09D01/pgi12.8/g09/l1002.exe)
 Minotr:  Closed shell wavefunction.
          IDoAtm=1111111111111111111111111111111111111111
          Direct CPHF calculation.
          Differentiating once with respect to electric field.
                with respect to dipole field.
          Differentiating once with respect to nuclear coordinates.
          Requested convergence is 1.0D-08 RMS, and 1.0D-07 maximum.
          Secondary convergence is 1.0D-12 RMS, and 1.0D-12 maximum.
          NewPWx=T KeepS1=F KeepF1=F KeepIn=T MapXYZ=F SortEE=F KeepMc=T.
          MDV=     268434633 using IRadAn=       1.
 Defaulting to unpruned grid for atomic number  46.
 Generate precomputed XC quadrature information.
          Solving linear equations simultaneously, MaxMat=       0.
 FoFJK:  IHMeth= 1 ICntrl=       0 DoSepK=F KAlg= 0 I1Cent=   0 FoldK=F
 IRaf= 840000000 NMat= 123 IRICut=     307 DoRegI=T DoRafI=T ISym2E= 2.
 FoFCou: FMM=F IPFlag=           0 FMFlag=      100000 FMFlg1=           0
         NFxFlg=           0 DoJE=F BraDBF=F KetDBF=F FulRan=T
         wScrn=  0.000000 ICntrl=       0 IOpCl=  0 I1Cent=           0 NGrid=           0
         NMat0=  123 NMatS0=    123 NMatT0=    0 NMatD0=  123 NMtDS0=    0 NMtDT0=    0
 Integrals replicated using symmetry in FoFCou.
 Defaulting to unpruned grid for atomic number  46.
 Defaulting to unpruned grid for atomic number  46.
 Defaulting to unpruned grid for atomic number  46.
 Defaulting to unpruned grid for atomic number  46.
 Defaulting to unpruned grid for atomic number  46.
 Defaulting to unpruned grid for atomic number  46.
 Defaulting to unpruned grid for atomic number  46.
 Defaulting to unpruned grid for atomic number  46.
          There are   123 degrees of freedom in the 1st order CPHF.  IDoFFX=6 NUNeed=     3.
    120 vectors produced by pass  0 Test12= 2.71D-14 1.00D-09 XBig12= 3.47D+02 7.08D+00.
 AX will form   120 AO Fock derivatives at one time.
    120 vectors produced by pass  1 Test12= 2.71D-14 1.00D-09 XBig12= 5.21D+01 1.38D+00.
    120 vectors produced by pass  2 Test12= 2.71D-14 1.00D-09 XBig12= 9.52D-01 1.10D-01.
    120 vectors produced by pass  3 Test12= 2.71D-14 1.00D-09 XBig12= 5.96D-03 1.04D-02.
    120 vectors produced by pass  4 Test12= 2.71D-14 1.00D-09 XBig12= 2.94D-05 4.69D-04.
    120 vectors produced by pass  5 Test12= 2.71D-14 1.00D-09 XBig12= 8.13D-08 2.02D-05.
     67 vectors produced by pass  6 Test12= 2.71D-14 1.00D-09 XBig12= 1.69D-10 8.46D-07.
      3 vectors produced by pass  7 Test12= 2.71D-14 1.00D-09 XBig12= 3.18D-13 3.95D-08.
      3 vectors produced by pass  8 Test12= 2.71D-14 1.00D-09 XBig12= 3.53D-15 6.97D-09.
      3 vectors produced by pass  9 Test12= 2.71D-14 1.00D-09 XBig12= 4.05D-15 7.49D-09.
      3 vectors produced by pass 10 Test12= 2.71D-14 1.00D-09 XBig12= 1.25D-14 1.27D-08.
      3 vectors produced by pass 11 Test12= 2.71D-14 1.00D-09 XBig12= 1.43D-14 1.33D-08.
      3 vectors produced by pass 12 Test12= 2.71D-14 1.00D-09 XBig12= 3.64D-15 5.38D-09.
      3 vectors produced by pass 13 Test12= 2.71D-14 1.00D-09 XBig12= 1.78D-14 1.67D-08.
      3 vectors produced by pass 14 Test12= 2.71D-14 1.00D-09 XBig12= 9.55D-15 8.96D-09.
      3 vectors produced by pass 15 Test12= 2.71D-14 1.00D-09 XBig12= 1.60D-14 1.25D-08.
      3 vectors produced by pass 16 Test12= 2.71D-14 1.00D-09 XBig12= 1.13D-14 8.53D-09.
      3 vectors produced by pass 17 Test12= 2.71D-14 1.00D-09 XBig12= 1.07D-14 1.02D-08.
      3 vectors produced by pass 18 Test12= 2.71D-14 1.00D-09 XBig12= 1.22D-14 1.11D-08.
      3 vectors produced by pass 19 Test12= 2.71D-14 1.00D-09 XBig12= 1.63D-14 1.39D-08.
      3 vectors produced by pass 20 Test12= 2.71D-14 1.00D-09 XBig12= 1.12D-14 9.34D-09.
      3 vectors produced by pass 21 Test12= 2.71D-14 1.00D-09 XBig12= 1.76D-14 1.24D-08.
      3 vectors produced by pass 22 Test12= 2.71D-14 1.00D-09 XBig12= 4.76D-15 5.84D-09.
      3 vectors produced by pass 23 Test12= 2.71D-14 1.00D-09 XBig12= 2.53D-14 1.46D-08.
      3 vectors produced by pass 24 Test12= 2.71D-14 1.00D-09 XBig12= 1.54D-14 1.08D-08.
      3 vectors produced by pass 25 Test12= 2.71D-14 1.00D-09 XBig12= 5.18D-15 6.12D-09.
      3 vectors produced by pass 26 Test12= 2.71D-14 1.00D-09 XBig12= 9.17D-15 7.07D-09.
      3 vectors produced by pass 27 Test12= 2.71D-14 1.00D-09 XBig12= 1.54D-14 8.57D-09.
      3 vectors produced by pass 28 Test12= 2.71D-14 1.00D-09 XBig12= 3.44D-15 4.39D-09.
      3 vectors produced by pass 29 Test12= 2.71D-14 1.00D-09 XBig12= 1.16D-14 8.31D-09.
      3 vectors produced by pass 30 Test12= 2.71D-14 1.00D-09 XBig12= 1.65D-14 9.62D-09.
      3 vectors produced by pass 31 Test12= 2.71D-14 1.00D-09 XBig12= 2.09D-14 1.16D-08.
      3 vectors produced by pass 32 Test12= 2.71D-14 1.00D-09 XBig12= 3.83D-15 4.40D-09.
      3 vectors produced by pass 33 Test12= 2.71D-14 1.00D-09 XBig12= 8.77D-15 7.55D-09.
      3 vectors produced by pass 34 Test12= 2.71D-14 1.00D-09 XBig12= 1.48D-14 1.11D-08.
      3 vectors produced by pass 35 Test12= 2.71D-14 1.00D-09 XBig12= 3.36D-14 1.41D-08.
      3 vectors produced by pass 36 Test12= 2.71D-14 1.00D-09 XBig12= 1.61D-14 8.98D-09.
      3 vectors produced by pass 37 Test12= 2.71D-14 1.00D-09 XBig12= 1.27D-14 8.58D-09.
      3 vectors produced by pass 38 Test12= 2.71D-14 1.00D-09 XBig12= 1.12D-14 7.88D-09.
      3 vectors produced by pass 39 Test12= 2.71D-14 1.00D-09 XBig12= 6.08D-15 7.24D-09.
      3 vectors produced by pass 40 Test12= 2.71D-14 1.00D-09 XBig12= 1.93D-14 1.08D-08.
      3 vectors produced by pass 41 Test12= 2.71D-14 1.00D-09 XBig12= 7.60D-15 8.64D-09.
      3 vectors produced by pass 42 Test12= 2.71D-14 1.00D-09 XBig12= 1.33D-14 8.42D-09.
      3 vectors produced by pass 43 Test12= 2.71D-14 1.00D-09 XBig12= 3.32D-14 1.32D-08.
      3 vectors produced by pass 44 Test12= 2.71D-14 1.00D-09 XBig12= 2.42D-15 3.67D-09.
      3 vectors produced by pass 45 Test12= 2.71D-14 1.00D-09 XBig12= 1.87D-14 9.01D-09.
      3 vectors produced by pass 46 Test12= 2.71D-14 1.00D-09 XBig12= 1.08D-14 7.70D-09.
      3 vectors produced by pass 47 Test12= 2.71D-14 1.00D-09 XBig12= 1.23D-14 8.50D-09.
      3 vectors produced by pass 48 Test12= 2.71D-14 1.00D-09 XBig12= 1.45D-14 8.29D-09.
      3 vectors produced by pass 49 Test12= 2.71D-14 1.00D-09 XBig12= 7.11D-15 6.52D-09.
      3 vectors produced by pass 50 Test12= 2.71D-14 1.00D-09 XBig12= 2.32D-14 1.25D-08.
      3 vectors produced by pass 51 Test12= 2.71D-14 1.00D-09 XBig12= 1.03D-13 2.60D-08.
      3 vectors produced by pass 52 Test12= 2.71D-14 1.00D-09 XBig12= 5.43D-15 4.72D-09.
      3 vectors produced by pass 53 Test12= 2.71D-14 1.00D-09 XBig12= 1.68D-14 1.06D-08.
      3 vectors produced by pass 54 Test12= 2.71D-14 1.00D-09 XBig12= 3.67D-14 1.20D-08.
      3 vectors produced by pass 55 Test12= 2.71D-14 1.00D-09 XBig12= 1.37D-14 9.15D-09.
      3 vectors produced by pass 56 Test12= 2.71D-14 1.00D-09 XBig12= 3.00D-14 1.30D-08.
      3 vectors produced by pass 57 Test12= 2.71D-14 1.00D-09 XBig12= 1.05D-14 8.20D-09.
      3 vectors produced by pass 58 Test12= 2.71D-14 1.00D-09 XBig12= 1.74D-14 8.95D-09.
      3 vectors produced by pass 59 Test12= 2.71D-14 1.00D-09 XBig12= 1.19D-14 7.48D-09.
      3 vectors produced by pass 60 Test12= 2.71D-14 1.00D-09 XBig12= 1.71D-14 9.69D-09.
      3 vectors produced by pass 61 Test12= 2.71D-14 1.00D-09 XBig12= 7.65D-15 5.53D-09.
      3 vectors produced by pass 62 Test12= 2.71D-14 1.00D-09 XBig12= 2.09D-14 1.19D-08.
      3 vectors produced by pass 63 Test12= 2.71D-14 1.00D-09 XBig12= 5.84D-15 4.80D-09.
      3 vectors produced by pass 64 Test12= 2.71D-14 1.00D-09 XBig12= 1.29D-14 8.74D-09.
      3 vectors produced by pass 65 Test12= 2.71D-14 1.00D-09 XBig12= 1.01D-14 7.83D-09.
      3 vectors produced by pass 66 Test12= 2.71D-14 1.00D-09 XBig12= 2.51D-14 9.76D-09.
      3 vectors produced by pass 67 Test12= 2.71D-14 1.00D-09 XBig12= 1.03D-14 7.27D-09.
      3 vectors produced by pass 68 Test12= 2.71D-14 1.00D-09 XBig12= 1.55D-14 7.91D-09.
      3 vectors produced by pass 69 Test12= 2.71D-14 1.00D-09 XBig12= 1.95D-14 8.76D-09.
      3 vectors produced by pass 70 Test12= 2.71D-14 1.00D-09 XBig12= 3.57D-15 4.24D-09.
      3 vectors produced by pass 71 Test12= 2.71D-14 1.00D-09 XBig12= 5.98D-14 2.29D-08.
      3 vectors produced by pass 72 Test12= 2.71D-14 1.00D-09 XBig12= 8.48D-15 5.41D-09.
      3 vectors produced by pass 73 Test12= 2.71D-14 1.00D-09 XBig12= 3.17D-14 1.39D-08.
      2 vectors produced by pass 74 Test12= 2.71D-14 1.00D-09 XBig12= 4.18D-15 4.48D-09.
 InvSVY:  IOpt=1 It=  1 EMax= 7.11D-15
 Solved reduced A of dimension   990 with   123 vectors.
 FullF1:  Do perturbations    1 to     3.
 Isotropic polarizability for W=    0.000000      242.36 Bohr**3.
 End of Minotr F.D. properties file   721 does not exist.
 End of Minotr F.D. properties file   722 does not exist.
 End of Minotr F.D. properties file   788 does not exist.
 Leave Link 1002 at Thu Jun  2 17:20:36 2016, MaxMem=   268435456 cpu:     47210.8
 (Enter /afs/crc.nd.edu/x86_64_linux/gaussian/09D01/pgi12.8/g09/l601.exe)
 Copying SCF densities to generalized density rwf, IOpCl= 0 IROHF=0.

 **********************************************************************

            Population analysis using the SCF density.

 **********************************************************************

 Orbital symmetries:
       Occupied  (A) (A) (A) (A) (A) (A) (A) (A) (A) (A) (A) (A)
                 (A) (A) (A) (A) (A) (A) (A) (A) (A) (A) (A) (A)
                 (A) (A) (A) (A) (A) (A) (A) (A) (A) (A) (A) (A)
                 (A) (A) (A) (A) (A) (A) (A) (A) (A) (A) (A) (A)
                 (A) (A) (A) (A) (A) (A) (A) (A) (A) (A) (A) (A)
                 (A) (A) (A) (A) (A) (A) (A) (A) (A) (A) (A) (A)
                 (A) (A) (A) (A) (A) (A) (A) (A)
       Virtual   (A) (A) (A) (A) (A) (A) (A) (A) (A) (A) (A) (A)
                 (A) (A) (A) (A) (A) (A) (A) (A) (A) (A) (A) (A)
                 (A) (A) (A) (A) (A) (A) (A) (A) (A) (A) (A) (A)
                 (A) (A) (A) (A) (A) (A) (A) (A) (A) (A) (A) (A)
                 (A) (A) (A) (A) (A) (A) (A) (A) (A) (A) (A) (A)
                 (A) (A) (A) (A) (A) (A) (A) (A) (A) (A) (A) (A)
                 (A) (A) (A) (A) (A) (A) (A) (A) (A) (A) (A) (A)
                 (A) (A) (A) (A) (A) (A) (A) (A) (A) (A) (A) (A)
                 (A) (A) (A) (A) (A) (A) (A) (A) (A) (A) (A) (A)
                 (A) (A) (A) (A) (A) (A) (A) (A) (A) (A) (A) (A)
                 (A) (A) (A) (A) (A) (A) (A) (A) (A) (A) (A) (A)
                 (A) (A) (A) (A) (A) (A) (A) (A) (A) (A) (A) (A)
                 (A) (A) (A) (A) (A) (A) (A) (A) (A) (A) (A) (A)
                 (A) (A) (A) (A) (A) (A) (A) (A) (A) (A) (A) (A)
                 (A) (A) (A) (A) (A) (A) (A) (A) (A) (A) (A) (A)
                 (A) (A) (A) (A) (A) (A) (A) (A) (A) (A) (A) (A)
                 (A) (A) (A) (A) (A) (A) (A) (A) (A) (A) (A) (A)
                 (A) (A) (A) (A) (A) (A) (A) (A) (A) (A) (A) (A)
                 (A) (A) (A) (A) (A) (A) (A) (A) (A) (A) (A) (A)
                 (A) (A) (A) (A) (A) (A) (A) (A) (A) (A) (A) (A)
                 (A) (A) (A) (A) (A) (A) (A) (A) (A) (A) (A) (A)
                 (A) (A) (A) (A) (A) (A) (A) (A) (A) (A) (A) (A)
                 (A) (A) (A) (A) (A) (A) (A) (A) (A) (A) (A) (A)
                 (A) (A) (A) (A) (A) (A) (A) (A) (A) (A) (A) (A)
                 (A) (A) (A) (A) (A) (A) (A) (A) (A) (A) (A) (A)
                 (A) (A) (A) (A) (A) (A) (A) (A) (A) (A) (A) (A)
                 (A) (A) (A) (A) (A) (A) (A) (A) (A) (A) (A) (A)
                 (A) (A) (A) (A) (A) (A) (A) (A) (A) (A) (A) (A)
                 (A) (A) (A)
 The electronic state is 1-A.
 Alpha  occ. eigenvalues --  -19.41635 -14.59055 -14.55281 -10.49797 -10.45334
 Alpha  occ. eigenvalues --  -10.44186 -10.43375 -10.42184 -10.41618 -10.41478
 Alpha  occ. eigenvalues --  -10.40986 -10.40671 -10.40173 -10.39404 -10.37141
 Alpha  occ. eigenvalues --  -10.37100 -10.36741 -10.36683 -10.36430 -10.35115
 Alpha  occ. eigenvalues --   -3.47398  -2.21774  -2.21527  -2.18292  -1.26831
 Alpha  occ. eigenvalues --   -1.12745  -1.07126  -0.98356  -0.96699  -0.95857
 Alpha  occ. eigenvalues --   -0.92452  -0.90801  -0.87225  -0.86714  -0.84001
 Alpha  occ. eigenvalues --   -0.80866  -0.79244  -0.74825  -0.74406  -0.72983
 Alpha  occ. eigenvalues --   -0.72873  -0.71187  -0.68797  -0.65313  -0.64722
 Alpha  occ. eigenvalues --   -0.63816  -0.63501  -0.61887  -0.61227  -0.59344
 Alpha  occ. eigenvalues --   -0.58178  -0.58100  -0.57956  -0.57462  -0.57337
 Alpha  occ. eigenvalues --   -0.56581  -0.54423  -0.54319  -0.53367  -0.52637
 Alpha  occ. eigenvalues --   -0.52349  -0.51946  -0.51815  -0.50709  -0.50032
 Alpha  occ. eigenvalues --   -0.49543  -0.48497  -0.47697  -0.46825  -0.45646
 Alpha  occ. eigenvalues --   -0.45489  -0.42919  -0.42704  -0.41923  -0.41755
 Alpha  occ. eigenvalues --   -0.40254  -0.38609  -0.38191  -0.37442  -0.35443
 Alpha virt. eigenvalues --   -0.19812  -0.17572  -0.16517  -0.15090  -0.13052
 Alpha virt. eigenvalues --   -0.12359  -0.12016  -0.11686  -0.11283  -0.10143
 Alpha virt. eigenvalues --   -0.09975  -0.09533  -0.09271  -0.08893  -0.08805
 Alpha virt. eigenvalues --   -0.08461  -0.08123  -0.08024  -0.07430  -0.06833
 Alpha virt. eigenvalues --   -0.06667  -0.06435  -0.06175  -0.05978  -0.05429
 Alpha virt. eigenvalues --   -0.04909  -0.04412  -0.04072  -0.03426  -0.03099
 Alpha virt. eigenvalues --   -0.03021  -0.02291  -0.02191  -0.01837  -0.01541
 Alpha virt. eigenvalues --   -0.01232  -0.00828  -0.00620  -0.00420  -0.00181
 Alpha virt. eigenvalues --    0.00369   0.00901   0.01272   0.01529   0.01670
 Alpha virt. eigenvalues --    0.02065   0.02288   0.02460   0.02883   0.02943
 Alpha virt. eigenvalues --    0.03464   0.03801   0.04030   0.04230   0.04314
 Alpha virt. eigenvalues --    0.04954   0.05039   0.05270   0.05411   0.06037
 Alpha virt. eigenvalues --    0.06576   0.06855   0.07300   0.07561   0.07956
 Alpha virt. eigenvalues --    0.08155   0.08325   0.08625   0.08946   0.09024
 Alpha virt. eigenvalues --    0.09334   0.10206   0.10487   0.10789   0.10930
 Alpha virt. eigenvalues --    0.11431   0.11598   0.11840   0.12112   0.12363
 Alpha virt. eigenvalues --    0.12580   0.12909   0.13174   0.13338   0.13775
 Alpha virt. eigenvalues --    0.13931   0.14419   0.14560   0.14833   0.15535
 Alpha virt. eigenvalues --    0.15701   0.16103   0.16149   0.16330   0.17235
 Alpha virt. eigenvalues --    0.17660   0.17894   0.18630   0.18943   0.19449
 Alpha virt. eigenvalues --    0.19505   0.19904   0.20188   0.20772   0.21026
 Alpha virt. eigenvalues --    0.21337   0.22179   0.22276   0.22392   0.22719
 Alpha virt. eigenvalues --    0.23242   0.23555   0.24070   0.24275   0.24708
 Alpha virt. eigenvalues --    0.24881   0.25228   0.26786   0.27116   0.27520
 Alpha virt. eigenvalues --    0.28494   0.30565   0.31360   0.31670   0.32194
 Alpha virt. eigenvalues --    0.34913   0.35282   0.37887   0.42574   0.43108
 Alpha virt. eigenvalues --    0.43911   0.46232   0.47250   0.47370   0.50101
 Alpha virt. eigenvalues --    0.51082   0.52780   0.53405   0.53936   0.55419
 Alpha virt. eigenvalues --    0.55473   0.56680   0.57008   0.57811   0.58778
 Alpha virt. eigenvalues --    0.59065   0.59761   0.60015   0.60644   0.60947
 Alpha virt. eigenvalues --    0.61384   0.61794   0.62568   0.63324   0.64097
 Alpha virt. eigenvalues --    0.64543   0.65018   0.65653   0.66306   0.66865
 Alpha virt. eigenvalues --    0.67486   0.67912   0.69111   0.69980   0.70913
 Alpha virt. eigenvalues --    0.71816   0.72001   0.72958   0.73683   0.75038
 Alpha virt. eigenvalues --    0.75563   0.76183   0.76621   0.77621   0.78070
 Alpha virt. eigenvalues --    0.78873   0.79166   0.79622   0.80079   0.80625
 Alpha virt. eigenvalues --    0.81434   0.81788   0.83723   0.85074   0.85135
 Alpha virt. eigenvalues --    0.86833   0.87108   0.87684   0.88398   0.89022
 Alpha virt. eigenvalues --    0.90841   0.91364   0.92238   0.93144   0.93504
 Alpha virt. eigenvalues --    0.94522   0.94991   0.96717   0.98258   0.99091
 Alpha virt. eigenvalues --    1.00258   1.01242   1.01928   1.02778   1.03392
 Alpha virt. eigenvalues --    1.05700   1.06227   1.06758   1.07821   1.08459
 Alpha virt. eigenvalues --    1.09935   1.10396   1.10833   1.12275   1.13307
 Alpha virt. eigenvalues --    1.15436   1.16322   1.16799   1.17481   1.18675
 Alpha virt. eigenvalues --    1.18990   1.20914   1.21404   1.24003   1.25968
 Alpha virt. eigenvalues --    1.26845   1.27668   1.29335   1.30223   1.30973
 Alpha virt. eigenvalues --    1.32004   1.33010   1.33605   1.34757   1.35923
 Alpha virt. eigenvalues --    1.37057   1.37591   1.39090   1.39859   1.40749
 Alpha virt. eigenvalues --    1.41607   1.42975   1.45320   1.46063   1.49317
 Alpha virt. eigenvalues --    1.50591   1.52575   1.55638   1.58025   1.59689
 Alpha virt. eigenvalues --    1.62384   1.64335   1.66574   1.66780   1.67944
 Alpha virt. eigenvalues --    1.69058   1.70821   1.71022   1.71880   1.72786
 Alpha virt. eigenvalues --    1.75088   1.76147   1.77138   1.77771   1.79987
 Alpha virt. eigenvalues --    1.80361   1.81963   1.82504   1.83187   1.84073
 Alpha virt. eigenvalues --    1.84439   1.84675   1.88160   1.90646   1.91358
 Alpha virt. eigenvalues --    1.92201   1.95460   1.96042   1.96969   1.97913
 Alpha virt. eigenvalues --    2.00019   2.00680   2.01047   2.01820   2.02439
 Alpha virt. eigenvalues --    2.04559   2.05895   2.06630   2.06995   2.07559
 Alpha virt. eigenvalues --    2.09352   2.10396   2.11222   2.11689   2.13730
 Alpha virt. eigenvalues --    2.14822   2.15445   2.17746   2.17928   2.18352
 Alpha virt. eigenvalues --    2.22309   2.23583   2.24265   2.27090   2.32176
 Alpha virt. eigenvalues --    2.35146   2.38712   2.39321   2.43063   2.43221
 Alpha virt. eigenvalues --    2.43503   2.45379   2.46259   2.46830   2.50833
 Alpha virt. eigenvalues --    2.51188   2.53967   2.54658   2.55385   2.56104
 Alpha virt. eigenvalues --    2.58022   2.59457   2.61246   2.65307   2.66328
 Alpha virt. eigenvalues --    2.67351   2.68461   2.71504   2.73135   2.73631
 Alpha virt. eigenvalues --    2.78664   2.83745   2.90750   2.92484   2.98856
 Alpha virt. eigenvalues --    3.15224   3.22954   3.27382  15.96778
          Condensed to atoms (all electrons):
               1          2          3          4          5          6
     1  Pd  18.793053  -0.877858   1.450602  -1.788743   0.206505   0.801778
     2  C   -0.877858   7.400299  -1.952320   1.329801   0.011261  -0.387933
     3  C    1.450602  -1.952320   8.741239  -3.985055   0.056082   0.429516
     4  C   -1.788743   1.329801  -3.985055  21.281548  -0.523365  -0.679472
     5  N    0.206505   0.011261   0.056082  -0.523365   7.300407   0.122346
     6  C    0.801778  -0.387933   0.429516  -0.679472   0.122346   9.059872
     7  C   -0.682498   0.307493  -0.394055   0.595252  -0.191416  -0.279092
     8  N    0.440906  -0.173121   0.206021  -0.354189  -0.061908   0.378885
     9  C    0.082752   0.049141   0.044912   0.045554  -0.265757   1.365438
    10  H   -0.002901  -0.005970   0.006501  -0.006611  -0.000944   0.014284
    11  O    0.016917  -0.001196   0.002458  -0.011807  -0.138776   0.389371
    12  C   -0.326384   0.142695  -0.150057   0.030252   0.009532  -0.145459
    13  C    0.100343  -0.050100   0.173228  -2.236937   0.032992  -0.009219
    14  C   -0.333310   0.154433  -0.139017  -0.365413   0.029902  -0.104896
    15  C    0.290595  -0.054652   0.607945  -3.959423   0.157963  -0.047979
    16  C    1.056647  -0.660343   1.186995  -4.970445   0.155474   0.507970
    17  H    0.000496  -0.000456  -0.000319  -0.002093   0.000178   0.000359
    18  H   -0.002114   0.002293  -0.005241   0.032134  -0.000141  -0.000886
    19  H   -0.007535   0.004793  -0.007733   0.206420  -0.002166   0.000621
    20  H   -0.017520   0.012934  -0.017522   0.222603  -0.003105  -0.003573
    21  H   -0.001034   0.001254  -0.005708   0.017664  -0.000016  -0.000361
    22  H   -0.029638   0.026743   0.315073   0.068699  -0.001157  -0.000871
    23  H   -0.026588   0.025383   0.325912   0.040492  -0.001027  -0.000383
    24  H   -0.022459   0.356001  -0.027348  -0.007393  -0.002284  -0.000118
[...]
 1381,0.00001858,0.00001751,-0.00002429,-0.00001095,-0.00013948,-0.0001
 0349,-0.00000892,0.00002116,0.00001952,-0.00000024,0.00002165,-0.00001
 551,-0.00000285,0.00002901,0.00002081,0.00000950,0.00001073,-0.0000061
 4,-0.00000235,0.00000035,0.00001612,0.00024773,-0.00045013,0.00006429,
 -0.00000839,0.00015876,0.00015352,-0.00008631,-0.00018767,0.00000520,-
 0.01401850,-0.00014537,-0.01364079,-0.02482828,-0.04967681,-0.01878593
 ,0.00000872,-0.00002175,-0.00005856,0.00002796,-0.00002784,-0.00001001
 ,-0.00001146,-0.00000315,-0.00000509,-0.00109438,-0.00144663,0.0004558
 0,0.00035127,0.00149542,0.00004864,0.01674280,0.05569204,-0.00011323,0
 .00006107,-0.00000707,-0.00000051,0.00009191,-0.00002625,-0.00018066,0
 .00009407,-0.00001837,-0.00009737,-0.00008106,-0.00042189,0.00048569,0
 .00060032,0.00303536,0.00141728,0.00164260,-0.00051900,0.00011152,-0.0
 0004448,-0.00011935,0.00003351,0.00000321,0.00001045,-0.00006684,0.000
 01764,-0.00000425,-0.00001006,-0.00000021,-0.00000054,0.00434241,-0.00
 056315,0.00022492,0.00021958,-0.00028564,0.00026092,0.00017332,-0.0000
 4084,-0.00031922,0.00013008,0.00002165,-0.00006806,0.00003184,-0.00008
 137,0.00011789,-0.00044426,0.00026812,0.00024481,0.00002788,0.00001574
 ,0.00000288,-0.00000394,-0.00000104,0.00001018,-0.00000563,-0.00004145
 ,0.00001767,0.00004612,-0.00009286,-0.00009842,-0.00005944,0.00000013,
 -0.00004450,-0.00000621,-0.00003040,0.00001549,-0.00000290,-0.00003004
 ,-0.00002051,0.00000728,-0.00000403,0.00000663,0.00000342,-0.00001346,
 0.,0.00003509,0.00002559,0.00000691,0.00003091,-0.00002375,0.00005105,
 0.00002762,0.00003899,-0.00000438,0.00752563,0.00094705,0.00670947,-0.
 13231038,-0.01577573,-0.16556187,-0.00001565,-0.00000803,-0.00003293,0
 .00000179,-0.00000002,-0.00000372,0.00000363,-0.00000274,-0.00000758,0
 .00026508,0.00078169,0.00003437,0.00015915,-0.00047605,0.00094169,0.13
 667188,0.01688640,0.17987734,0.00012943,-0.00022039,-0.00015072,-0.000
 04855,0.00002760,0.00004304,-0.00006475,-0.00004319,-0.00000922,0.0000
 1807,0.00014779,-0.00010402,-0.01566495,0.01381855,0.02020272,0.000898
 98,0.00254233,0.00184542,-0.00044889,-0.00021079,-0.00155378,0.0000042
 0,-0.00014230,-0.00001801,-0.00014187,0.00003913,0.00006726,0.00000174
 ,0.00000817,0.00000463,-0.00082159,0.00001954,-0.00027359,-0.00002185,
 -0.00005634,0.00012122,0.00000811,-0.00029550,0.00016525,-0.00021664,-
 0.00031807,-0.00025214,-0.00013997,0.00006022,0.00012025,0.00011727,0.
 00000896,0.00003723,0.00001292,0.00000369,0.00000593,-0.00001121,0.000
 02461,0.00001637,-0.00006916,-0.00019579,0.00006373,0.00001816,0.00009
 144,0.00004690,0.00006385,0.00002775,0.00002781,0.00000063,0.00000819,
 -0.00000351,-0.00000225,0.00000462,0.00000001,-0.00000255,0.,0.0000005
 6,0.00000940,0.00002074,-0.00000604,-0.00005868,0.00018504,-0.00003197
 ,-0.00002300,-0.00000210,0.00020494,0.00004970,0.00005515,-0.00003310,
 -0.00849964,0.00010919,0.02285065,-0.09093246,-0.00085959,0.03417521,0
 .00002202,-0.00000936,-0.00005590,-0.00001574,0.00001168,-0.00001016,-
 0.00000004,0.00000272,-0.00000748,0.00155591,0.00145471,0.00061203,-0.
 00203763,-0.00163635,0.00108103,0.01076740,-0.00438570,-0.02106423,0.5
 6823677,0.00011430,0.00051477,-0.00019092,0.00007439,-0.00012213,0.000
 00872,0.00020232,0.00004545,0.00004456,0.00030918,-0.00000244,0.000112
 33,0.02325533,-0.01081980,-0.03080789,-0.00293104,-0.00950479,-0.00164
 327,0.00008242,0.00107313,0.00226714,-0.00015436,0.00013700,-0.0000714
 3,0.00049327,-0.00004874,0.00001579,0.00002646,-0.00001972,0.00000266,
 -0.00335528,0.00547441,-0.00037087,-0.00019257,-0.00002675,-0.00010432
 ,-0.00004495,0.00017210,-0.00012700,0.00018244,-0.00013815,0.00004254,
 -0.00052531,-0.00031594,-0.00030851,-0.00000102,0.00000632,0.00019167,
 0.00003710,0.00002721,0.00000313,-0.00020178,-0.00008967,0.00004858,0.
 00005570,-0.00008627,0.00001808,0.00003123,0.00002700,0.00002629,-0.00
 000860,0.00003219,0.00003534,0.00000078,0.00002985,-0.00001078,-0.0000
 0589,0.00001785,0.00001432,0.00001641,0.00001508,-0.00001464,0.0000069
 8,0.00001325,0.00001832,0.00030354,-0.00048841,-0.00000674,-0.00011906
 ,0.00021278,-0.00022890,-0.00017513,-0.00033945,0.00004304,-0.00552667
 ,0.00191858,0.02396672,0.00114634,-0.07782487,-0.01759077,0.00001172,-
 0.00002211,0.00008402,0.00002967,-0.00002181,0.00002445,-0.00001586,-0
 .00000317,-0.00000447,-0.00017229,0.00157774,0.00078491,-0.00410526,-0
 .00255159,0.00183347,0.00081634,0.00084743,-0.00330599,0.00876710,0.58
 112895,-0.00019358,-0.00021280,0.00019275,-0.00001138,0.00013894,-0.00
 002705,-0.00018803,0.00001201,-0.00002795,-0.00050457,-0.00020622,0.00
 014586,0.00542217,-0.00875477,0.00106485,-0.00227755,0.00359288,0.0008
 6525,0.00099601,-0.00091093,-0.00026702,0.00003621,0.00031756,-0.00002
 819,-0.00024449,0.00001131,0.00000224,-0.00001874,0.00001614,-0.000001
 35,-0.00005151,-0.00150544,-0.00128728,-0.00000916,0.00022942,0.000119
 62,0.00000179,-0.00016548,0.00018681,0.00008671,-0.00058541,-0.0001324
 9,-0.00056264,-0.00031039,-0.00008258,0.00018237,-0.00020995,0.0000312
 2,0.00000224,0.00000757,-0.00002473,-0.00001648,-0.00000598,-0.0000060
 1,0.00003406,-0.00000460,-0.00001320,-0.00000346,0.00001906,-0.0000012
 7,0.00002291,-0.00000484,-0.00000005,-0.00000271,-0.00002407,0.0000121
 9,0.00000578,-0.00002025,-0.00002295,-0.00000093,0.00000298,0.00001214
 ,-0.00000816,-0.00001344,-0.00001294,-0.00046032,0.00024020,-0.0000094
 0,0.00012977,-0.00019155,0.00010628,0.00006226,0.00028328,-0.00003342,
 0.00804880,0.00386612,-0.01079705,0.03869418,-0.01605834,-0.19151596,0
 .00001747,0.00001893,-0.00001390,-0.00001576,0.00000921,-0.00000278,0.
 00001257,0.00000326,-0.00000125,-0.00081496,-0.00143744,0.00111607,0.0
 0069237,-0.00031836,0.00060035,0.00949945,-0.00402591,-0.02230963,0.02
 636021,-0.01673613,0.49676930,-0.00007754,-0.00013183,0.00008692,-0.00
 000437,0.00003221,-0.00001083,-0.00004174,-0.00000071,-0.00000689,-0.0
 0016836,-0.00007613,0.00006189,-0.00125591,0.00027183,0.00264688,0.001
 35331,0.00145771,0.00023189,0.00005512,-0.00013732,-0.00020829,-0.0000
 0515,-0.00003186,0.00001371,-0.00009128,-0.00000258,-0.00000854,-0.000
 00242,0.00000465,0.00000028,0.00051037,-0.00113443,-0.00006052,0.00003
 807,0.00006407,-0.00006219,0.00004551,0.00013880,-0.00000433,0.0000980
 1,0.00004362,0.00004087,0.00001277,-0.00012384,-0.00007503,0.00003289,
 -0.00001703,0.00001960,-0.00004590,-0.00001808,-0.00001631,-0.00001576
 ,-0.00002960,0.00002307,0.00001229,0.00005771,-0.00001453,-0.00001104,
 -0.00000152,-0.00000817,-0.00000241,-0.00000822,-0.00000108,0.00000074
 ,-0.00000692,0.00000115,0.00000323,-0.00000731,-0.00000198,-0.00000170
 ,0.00000229,0.00000405,-0.00000459,-0.00000342,-0.00000404,-0.00004541
 ,0.00007924,-0.00002076,0.00003139,-0.00003619,0.00002118,0.00003119,0
 .00006416,-0.00000503,-0.00014007,0.00116611,-0.00043261,-0.00686186,0
 .00814344,-0.00142558,0.00000312,0.00000960,-0.00001141,-0.00000537,0.
 00000462,-0.00000063,0.00000254,0.00000084,0.00000041,-0.00048784,-0.0
 0047954,0.00007415,0.00008218,-0.00020141,-0.00004953,0.00035333,-0.00
 027832,-0.00011842,-0.13094696,0.12534501,-0.00022747,0.13765735,-0.00
 007705,0.00022237,0.00007495,0.00002265,-0.00003923,-0.00001097,0.0000
 9531,0.00000161,0.00000503,-0.00006605,0.00001117,0.00016138,0.0015013
 6,0.00059724,-0.00141480,-0.00115282,-0.00094414,-0.00022376,-0.000023
 29,0.00002489,-0.00008402,-0.00000926,0.00001424,-0.00002332,0.0000663
 8,-0.00000449,0.00000220,-0.00000002,-0.00000299,0.00000094,0.00017356
 ,0.00083563,0.00040973,0.00008178,0.00004022,-0.00011552,-0.00000059,0
 .00011029,0.00001831,0.00013691,-0.00007905,0.00004220,-0.00010827,-0.
 00019431,-0.00017285,-0.00007371,0.00005102,0.00004434,-0.00008001,-0.
 00002862,-0.00002673,-0.00004526,-0.00005421,0.00003493,0.00004208,0.0
 0010014,-0.00003300,-0.00000076,0.00000644,0.00000256,-0.00002103,-0.0
 0001285,-0.00001379,-0.00000202,0.00000178,-0.00000101,0.00000163,0.00
 000692,0.00000069,-0.00000049,-0.00000332,-0.00000288,-0.00000208,-0.0
 0000630,0.00000402,0.00000699,-0.00004329,0.00003721,-0.00002091,0.000
 01091,-0.00000954,-0.00002512,-0.00003614,0.00000664,-0.00012978,0.000
 36182,-0.00033920,0.00088047,-0.00415756,0.00213739,-0.00001329,-0.000
 00198,0.00000165,0.00000388,-0.00000293,-0.00000222,-0.00000149,-0.000
 00141,0.00000089,0.00013590,0.00002131,-0.00011620,0.00002028,0.000048
 72,-0.00007513,-0.00008704,0.00009944,-0.00027832,0.12593886,-0.231869
 05,-0.00006655,-0.13764374,0.24740204,0.00011806,0.00023429,-0.0001109
 3,0.00000392,-0.00008510,-0.00000025,0.00011974,-0.00003005,0.00002067
 ,0.00017104,0.00006482,-0.00006657,0.00428650,-0.00096016,-0.00585890,
 -0.00050456,-0.00300075,-0.00009152,0.00001445,0.00046254,0.00064508,-
 0.00004507,-0.00001972,-0.00000502,0.00017447,-0.00003224,-0.00000858,
 0.00001036,-0.00001053,-0.00000028,-0.00064368,0.00168547,-0.00023818,
 -0.00000010,0.00000316,-0.00000664,-0.00002791,0.00008047,-0.00002223,
 -0.00004635,0.00002868,0.00010483,-0.00003614,0.00009499,-0.00001429,-
 0.00000269,0.00003085,0.00004278,-0.00001622,-0.00001125,0.00001557,-0
 .00000509,0.00001820,-0.00000898,-0.00002643,-0.00006221,0.00001679,0.
 00000852,0.00000283,0.00000900,-0.00001772,-0.00000903,-0.00001259,-0.
 00000107,0.00001397,-0.00000439,-0.00000510,0.00001130,0.00000536,0.00
 000370,-0.00000467,-0.00000920,0.00000498,0.00000434,0.00000915,0.0001
 6209,-0.00019124,0.00000231,-0.00003320,0.00008384,-0.00008058,-0.0000
 5737,-0.00013268,0.00001307,0.00011959,-0.00098997,0.00065009,0.016449
 08,-0.02513836,0.00115628,-0.00001031,-0.00000194,0.00002465,0.0000125
 4,-0.00000982,0.00000574,-0.00000621,-0.00000245,0.00000113,-0.0000681
 8,0.00052924,0.00026643,-0.00018692,0.00004515,0.00000515,-0.00094264,
 0.00012870,0.00148654,-0.00088395,0.00149404,-0.04704482,-0.00148985,0
 .00068015,0.04937381,-0.00029398,0.00023230,0.00018258,0.00004908,-0.0
 0003773,-0.00004025,0.00009959,0.00001348,0.00001196,-0.00009249,-0.00
 023316,0.00005593,0.00074945,-0.00038292,-0.00082855,-0.00058493,-0.00
 118043,-0.00004368,-0.00002575,0.00004217,0.00009240,-0.00001823,0.000
 01512,-0.00003266,0.00001572,0.00001610,-0.00000659,-0.00000034,0.0000
 0334,0.00000112,0.00014063,0.00098321,-0.00023717,0.00002549,0.0001642
 9,-0.00003875,-0.00018612,0.00018527,-0.00013302,-0.00028891,-0.000656
 75,-0.00004908,-0.00040494,-0.00111365,-0.00023178,-0.00006310,-0.0000
 2589,0.00021072,-0.00001822,-0.00000871,-0.00000822,-0.00014467,-0.000
 06479,0.00012563,0.00010529,0.00022654,-0.00002859,0.00000156,0.000008
 16,0.00000524,-0.00001740,0.00000453,0.00001191,0.00000132,-0.00000045
 ,-0.00000284,0.00000563,0.00000411,0.00000542,-0.00000287,0.00000931,0
 .00000338,-0.00001498,-0.00001605,0.00000156,-0.00000176,-0.00003517,-
 0.00001000,-0.00000555,0.00000761,-0.00000264,-0.00000659,-0.00000950,
 0.00000804,0.00109469,0.00003917,0.00260190,-0.00765609,-0.00778513,0.
 00308928,0.00001218,-0.00000399,-0.00000033,0.00000217,-0.00000188,0.0
 0000123,-0.00000015,0.00000154,0.00000153,0.00002561,0.00025462,0.0000
 2003,-0.00065005,-0.00020401,0.00020548,0.00026710,0.00035320,-0.00020
 910,-0.13495555,-0.12032827,0.04537753,0.01167760,0.01462886,-0.006408
 24,0.14291040,0.00002412,0.00006612,0.00004125,0.00000264,-0.00000732,
 -0.00002312,-0.00001433,-0.00005270,0.00002053,0.00000648,-0.00049768,
 -0.00022428,-0.00048992,0.00092526,0.00018407,0.00012959,0.00043205,0.
 00000139,0.00000682,-0.00002251,-0.00001962,0.00000461,-0.00000858,-0.
 00000941,-0.00003013,-0.00000799,-0.00000343,0.00000293,0.00000305,0.0
 0000187,0.00008786,-0.00000515,0.00016575,0.00005653,0.00007920,0.0001
 9916,0.00001799,-0.00004197,0.00018650,-0.00084523,-0.00068040,-0.0001
 7491,-0.00108893,-0.00134261,-0.00032448,0.00006241,-0.00004152,0.0000
 2989,0.00007547,0.00001091,0.00004122,0.00012691,0.00015890,-0.0000193
 1,0.00002178,-0.00015771,0.00013416,0.00001474,0.00000273,0.00001347,0
 .00001274,0.00001177,0.00000328,-0.00000014,0.00000989,-0.00000106,-0.
 00000100,0.00000717,-0.00000112,0.00000186,0.00001154,0.00000389,-0.00
 000475,0.00000176,-0.00000149,-0.00004888,0.00002527,0.00000471,0.0000
 1261,-0.00002352,0.00000322,0.00000705,0.00002594,0.00000247,0.0007567
 4,-0.00023939,-0.00155892,0.00540041,0.00493912,-0.00263110,0.00000378
 ,-0.00000086,-0.00000209,-0.00000241,0.00000068,-0.00000025,-0.0000012
 8,0.00000069,0.00000078,0.00016132,0.00029893,-0.00000212,0.00020567,0
 .00033597,-0.00011417,-0.00020527,0.00014344,0.00051120,-0.12130324,-0
 .20856283,0.06267849,-0.01550948,-0.01688363,0.00697109,0.13170751,0.2
 2248233,0.00006060,0.00004704,-0.00007999,-0.00002461,-0.00014751,-0.0
 0000498,0.00023346,-0.00008475,0.00000857,0.00022793,0.00008353,-0.000
 17283,-0.00149426,-0.00016139,0.00171377,0.00038426,0.00115689,-0.0001
 2444,-0.00001109,-0.00001514,-0.00012005,-0.00002632,-0.00006519,-0.00
 000171,-0.00002571,-0.00003290,0.00000266,0.00001316,0.00000006,0.0000
 0276,0.00122648,-0.00124899,0.00026516,-0.00002757,-0.00003464,-0.0001
 4250,-0.00009479,0.00008371,-0.00015486,-0.00034497,0.00013889,0.00027
 222,0.00020124,-0.00020632,0.00032017,-0.00004148,0.00005179,-0.000063
 56,0.00000723,-0.00000358,0.00001125,0.00012688,0.00001479,-0.00005315
 ,-0.00004351,0.00019379,-0.00006977,0.00001358,0.00004182,0.00002226,0
 .00000752,0.00001086,0.00000998,0.00000464,0.00003604,-0.00001674,-0.0
 0000214,0.00004595,0.00003010,-0.00000544,0.00001468,-0.00000012,-0.00
 000644,0.00000968,-0.00000012,0.00000228,-0.00000561,0.00001236,0.0000
 0057,-0.00001090,0.00000742,0.00000242,0.00001113,-0.00000007,0.000115
 61,-0.00164653,-0.00530543,0.01826740,0.02499323,-0.00872681,-0.000026
 85,0.00000323,-0.00000903,0.00000006,-0.00000184,-0.00000113,-0.000003
 14,-0.00000196,0.00000208,-0.00005241,-0.00021253,-0.00003162,0.001070
 18,0.00092039,-0.00035206,-0.00058936,0.00021726,0.00102354,0.04448645
 ,0.06014446,-0.06999844,-0.00068270,-0.00077193,-0.00064710,-0.0517049
 5,-0.06661351,0.07538826,0.00008806,-0.00003188,-0.00001941,-0.0000047
 0,0.00005181,0.00000033,-0.00009884,0.00002020,0.00000428,-0.00010639,
 -0.00001870,0.00010417,0.00179261,-0.00081073,-0.00019709,-0.00004026,
 -0.00004580,-0.00032265,-0.00003839,0.00004374,0.00002483,0.00003037,0
 .00000385,0.00002431,0.00004238,0.00000169,-0.00000708,-0.00000571,-0.
 00000550,-0.00000370,0.00030851,-0.00014509,0.00015908,0.00001712,0.00
 000488,0.00005644,0.00003814,-0.00013380,0.00014565,-0.00000012,-0.000
 18887,-0.00016295,-0.00020589,-0.00001408,-0.00010663,0.00001435,0.000
 00662,-0.00005673,0.00003243,0.00001618,0.00000339,0.00003246,0.000045
 56,-0.00002361,-0.00000191,-0.00003553,0.00000199,-0.00000095,-0.00001
 695,-0.00001383,0.00000307,-0.00000025,-0.00000417,-0.00000348,-0.0000
 1081,0.00000917,-0.00000286,-0.00001254,-0.00001596,0.00000371,-0.0000
 1270,-0.00000275,0.00000589,-0.00000115,0.00000201,0.00005749,-0.00002
 879,0.00003105,-0.00000905,0.00001485,-0.00003140,-0.00001238,-0.00002
 925,0.00001155,0.00081204,0.00017754,0.00001735,0.00875125,0.00242476,
 0.01046661,-0.00000763,-0.00000406,-0.00000037,0.00000360,-0.00000234,
 -0.00000187,0.00000106,-0.00000202,-0.00000326,0.00010523,-0.00008546,
 -0.00053937,0.00015190,0.00014710,-0.00009097,-0.00017427,0.00070192,0
 .00295814,-0.19679064,-0.02344467,-0.13007295,-0.01178534,-0.00415282,
 -0.01019405,-0.01175082,0.00063442,-0.01124421,0.20874795,0.00002379,-
 0.00008921,-0.00008352,-0.00001110,0.00005078,-0.00000377,-0.00010925,
 0.00000422,0.00001102,-0.00012329,-0.00000782,0.00010374,-0.00160425,0
 .00022127,0.00011603,0.00071083,0.00087242,-0.00022345,0.00005153,-0.0
 0007161,-0.00000086,0.00001817,-0.00001947,0.00002548,-0.00000537,-0.0
 0002264,-0.00000046,-0.00000299,-0.00000147,-0.00000291,0.00037402,-0.
 00069708,-0.00009131,0.00007389,-0.00002050,0.00001212,0.00004428,-0.0
 0009824,0.00014835,-0.00002704,-0.00020279,-0.00009187,-0.00017327,-0.
 00005217,-0.00008553,0.00000111,0.00002383,-0.00004939,-0.00001451,-0.
 00000717,-0.00000288,0.00002014,0.00001886,-0.00000534,-0.00001861,-0.
 00004305,0.00001636,-0.00000433,0.00000043,-0.00000716,0.00000851,-0.0
 0000721,-0.00000967,-0.00000274,-0.00000882,0.00000453,-0.00000004,-0.
 00001700,-0.00001286,0.00000095,-0.00001249,-0.00000138,0.00000503,-0.
 00000137,-0.00000057,-0.00000614,0.00004996,-0.00000026,0.00001435,-0.
 00001597,-0.00000268,0.00000597,0.00001181,-0.00000645,0.00012851,0.00
 065997,0.00078236,-0.00339934,-0.00219895,-0.00398091,-0.00000696,0.00
 000960,-0.00000240,-0.00000255,0.00000323,-0.00000090,0.00000121,-0.00
 000097,-0.00000123,0.00007026,-0.00023873,0.00016392,0.00004795,-0.000
 15394,-0.00010395,0.00049014,0.00069640,-0.00082672,-0.02369907,-0.050
 41340,-0.01967854,0.01899356,0.00439730,0.01802404,-0.01681198,-0.0013
 9635,-0.01695398,0.02493867,0.04877831,0.00002340,-0.00004439,-0.00004
 136,-0.00002013,0.00000848,-0.00000564,-0.00001720,0.00000041,-0.00000
 029,-0.00004228,0.00002960,-0.00011070,-0.00075266,0.00169278,0.002428
 45,0.00030510,-0.00126639,-0.00005544,0.00005837,0.00005565,-0.0001661
 6,0.00000561,-0.00002557,0.00000180,-0.00001886,0.00001907,-0.00000078
 ,-0.00000231,0.00000256,0.00000089,0.00071725,0.00072741,0.00003211,0.
 00002391,-0.00008112,0.00000629,0.00003659,0.00003586,-0.00009213,0.00
 004172,0.00006641,0.00006602,0.00006111,0.00001088,0.00006497,-0.00005
 690,-0.00004131,0.00004220,-0.00000914,-0.00000390,-0.00000255,-0.0000
 2030,-0.00002740,0.00001680,-0.00000930,-0.00000621,0.00000844,0.00000
 467,0.00003866,0.00001755,0.00002524,0.00001453,0.00001678,0.00000055,
 0.00000191,0.00000005,0.00000044,-0.00000282,0.00000056,0.00000046,0.0
 0000378,0.00000290,0.00000108,0.00000034,-0.00000230,0.00001983,-0.000
 01823,0.00000010,0.00002032,-0.00000178,0.00001744,0.00001925,0.000004
 52,-0.00000312,-0.00131243,-0.00082830,0.00116198,-0.02319690,-0.00391
 962,-0.02372249,0.00001933,-0.00000415,-0.00002321,0.00000122,-0.00000
 189,-0.00000205,0.00000043,0.00000228,-0.00000007,0.00035819,0.0007394
 3,0.00007170,-0.00026371,0.00017980,0.00042713,0.00324025,-0.00112486,
 -0.00449056,-0.12808106,-0.01970196,-0.15756323,0.00172066,0.00011654,
 0.00037662,0.00800355,0.00052602,0.00698396,0.13909462,0.02282298,0.17
 453733\\0.00000122,0.00000053,-0.00000016,0.00000297,0.00000004,0.0000
 0173,0.00000215,-0.00000176,0.00000144,0.00000087,-0.00000107,0.000000
 21,-0.00000075,0.00000046,0.00000018,-0.00000121,0.00000154,0.,-0.0000
 0006,0.00000237,0.00000052,0.00000069,0.00000177,0.00000137,0.00000166
 ,0.00000266,0.00000100,0.00000259,0.00000266,0.00000183,-0.00000226,0.
 00000126,-0.00000131,-0.00000057,-0.00000375,-0.00000038,0.00000005,-0
 .00000349,-0.00000086,-0.00000068,-0.00000321,-0.00000101,0.00000060,-
 0.00000231,-0.00000059,0.00000114,-0.00000300,-0.00000009,-0.00000078,
 -0.00000466,-0.00000133,-0.00000043,-0.00000277,-0.00000081,0.00000076
 ,-0.00000091,0.00000018,0.00000105,-0.00000271,0.00000004,-0.00000010,
 -0.00000458,-0.00000099,0.00000297,-0.00000238,0.00000115,0.00000282,-
 0.00000149,0.00000125,0.00000303,0.00000076,0.00000167,0.00000296,0.00
 000023,0.00000162,-0.00000052,0.00000341,0.00000031,0.00000025,0.00000
 441,0.00000095,0.00000125,0.00000392,0.00000154,-0.00000283,0.00000038
 ,-0.00000185,-0.00000209,-0.00000048,-0.00000105,-0.00000157,0.0000035
 8,-0.00000004,0.,0.00000523,0.00000112,0.00000202,0.00000468,0.0000020
 2,-0.00000348,0.00000041,-0.00000153,-0.00000290,0.00000008,-0.0000014
 6,-0.00000140,-0.00000193,-0.00000133,-0.00000285,-0.00000008,-0.00000
 125,-0.00000297,-0.00000066,-0.00000184,-0.00000118,0.00000015,-0.0000
 0097,-0.00000240,0.00000070,-0.00000128\\\@


 KNOWLEDGE IS OF TWO KINDS:  WE KNOW A SUBJECT OURSELVES OR WE KNOW 
 WHERE WE CAN FIND INFORMATION UPON IT.

                                    -- SAMUEL JOHNSON
 Job cpu time:       0 days 22 hours 56 minutes 22.2 seconds.
 File lengths (MBytes):  RWF=    774 Int=      0 D2E=      0 Chk=     14 Scr=      1
 Normal termination of Gaussian 09 at Thu Jun  2 17:47:42 2016.
