 Entering Gaussian System, Link 0=g09
 Input=meets1.com
 Output=meets1.log
 Initial command:
 /afs/crc.nd.edu/x86_64_linux/gaussian/09D01/pgi12.8/g09/l1.exe "/scratch/Gau-23606.inp" -scrdir="/scratch/"
 Entering Link 1 = /afs/crc.nd.edu/x86_64_linux/gaussian/09D01/pgi12.8/g09/l1.exe PID=     23607.
  
 Copyright (c) 1988,1990,1992,1993,1995,1998,2003,2009,2013,
            Gaussian, Inc.  All Rights Reserved.
  
 This is part of the Gaussian(R) 09 program.  It is based on
 the Gaussian(R) 03 system (copyright 2003, Gaussian, Inc.),
 the Gaussian(R) 98 system (copyright 1998, Gaussian, Inc.),
 the Gaussian(R) 94 system (copyright 1995, Gaussian, Inc.),
 the Gaussian 92(TM) system (copyright 1992, Gaussian, Inc.),
 the Gaussian 90(TM) system (copyright 1990, Gaussian, Inc.),
 the Gaussian 88(TM) system (copyright 1988, Gaussian, Inc.),
 the Gaussian 86(TM) system (copyright 1986, Carnegie Mellon
 University), and the Gaussian 82(TM) system (copyright 1983,
 Carnegie Mellon University). Gaussian is a federally registered
 trademark of Gaussian, Inc.
  
 This software contains proprietary and confidential information,
 including trade secrets, belonging to Gaussian, Inc.
  
 This software is provided under written license and may be
 used, copied, transmitted, or stored only in accord with that
 written license.
  
 The following legend is applicable only to US Government
 contracts under FAR:
  
                    RESTRICTED RIGHTS LEGEND
  
 Use, reproduction and disclosure by the US Government is
 subject to restrictions as set forth in subparagraphs (a)
 and (c) of the Commercial Computer Software - Restricted
 Rights clause in FAR 52.227-19.
  
 Gaussian, Inc.
 340 Quinnipiac St., Bldg. 40, Wallingford CT 06492
  
  
 ---------------------------------------------------------------
 Warning -- This program may not be used in any manner that
 competes with the business of Gaussian, Inc. or will provide
 assistance to any competitor of Gaussian, Inc.  The licensee
 of this program is prohibited from giving any competitor of
 Gaussian, Inc. access to this program.  By using this program,
 the user acknowledges that Gaussian, Inc. is engaged in the
 business of creating and licensing software in the field of
 computational chemistry and represents and warrants to the
 licensee that it is not a competitor of Gaussian, Inc. and that
 it will not use this program in any manner prohibited above.
 ---------------------------------------------------------------
  

 Cite this work as:
 Gaussian 09, Revision D.01,
 M. J. Frisch, G. W. Trucks, H. B. Schlegel, G. E. Scuseria, 
 M. A. Robb, J. R. Cheeseman, G. Scalmani, V. Barone, B. Mennucci, 
 G. A. Petersson, H. Nakatsuji, M. Caricato, X. Li, H. P. Hratchian, 
 A. F. Izmaylov, J. Bloino, G. Zheng, J. L. Sonnenberg, M. Hada, 
 M. Ehara, K. Toyota, R. Fukuda, J. Hasegawa, M. Ishida, T. Nakajima, 
 Y. Honda, O. Kitao, H. Nakai, T. Vreven, J. A. Montgomery, Jr., 
 J. E. Peralta, F. Ogliaro, M. Bearpark, J. J. Heyd, E. Brothers, 
 K. N. Kudin, V. N. Staroverov, T. Keith, R. Kobayashi, J. Normand, 
 K. Raghavachari, A. Rendell, J. C. Burant, S. S. Iyengar, J. Tomasi, 
 M. Cossi, N. Rega, J. M. Millam, M. Klene, J. E. Knox, J. B. Cross, 
 V. Bakken, C. Adamo, J. Jaramillo, R. Gomperts, R. E. Stratmann, 
 O. Yazyev, A. J. Austin, R. Cammi, C. Pomelli, J. W. Ochterski, 
 R. L. Martin, K. Morokuma, V. G. Zakrzewski, G. A. Voth, 
 P. Salvador, J. J. Dannenberg, S. Dapprich, A. D. Daniels, 
 O. Farkas, J. B. Foresman, J. V. Ortiz, J. Cioslowski, 
 and D. J. Fox, Gaussian, Inc., Wallingford CT, 2013.
 
 ******************************************
 Gaussian 09:  AM64L-G09RevD.01 24-Apr-2013
                 2-Jun-2016 
 ******************************************
 %oldchk=meets1.chk
 %mem=2GB
 %nproc=8
 Will use up to    8 processors via shared memory.
 Copying data from "meets1.chk" to current chk file "/scratch/Gau-23607.chk".
 ----------------------------------------------------------------------
 #p geom=allcheck guess=read chkbasis freq=(noraman,HPModes) pop=(Chelp
 G,readradii) m06 empiricaldispersion=gd3 int=ultrafine
 ----------------------------------------------------------------------
 1/10=4,29=7,30=1,38=1/1,3;
 2/12=2,40=1/2;
 3/5=7,6=2,11=2,14=-4,16=1,25=1,30=1,67=1,71=2,74=-54,75=-5,116=-2,124=31,140=1/1,2,3;
 4/5=1/1;
 5/5=2,38=6,98=1/2;
 8/6=4,10=90,11=11/1;
 11/6=1,8=1,9=11,15=111,16=1/1,2,10;
 10/6=1/2;
 6/7=2,8=2,9=2,10=2,15=8,18=1,20=103,28=1/1,2;
 7/8=11,10=1,25=1/1,2,3,16;
 1/10=4,30=1/3;
 99//99;
 Leave Link    1 at Thu Jun  2 15:00:56 2016, MaxMem=   268435456 cpu:         2.2
 (Enter /afs/crc.nd.edu/x86_64_linux/gaussian/09D01/pgi12.8/g09/l101.exe)
 Structure from the checkpoint file:  "/scratch/Gau-23607.chk"
 ------------
 freq with HP
 ------------
 Charge =  1 Multiplicity = 1
 Redundant internal coordinates found in file.
 Pd,0,0.1207167456,-0.875908612,-0.102578014
 C,0,0.0998696738,-2.9520493079,-0.271960237
 C,0,1.4980520963,-2.7613994652,-0.2706252451
 C,0,2.2007136114,-0.8042634867,-0.0404682638
 N,0,-1.9943570562,-0.5494740111,-0.160704212
 C,0,-2.3336506699,0.6908908417,-0.1359376273
 C,0,-1.3528448511,1.7751644805,-0.0372724079
 N,0,-0.0728838448,1.3522296888,0.0225705128
 C,0,0.8935803545,2.2611879896,0.1226402657
 H,0,1.9140786884,1.8808556737,0.166569938
 O,0,-3.6264599657,0.9808209123,-0.1899780146
 C,0,4.6044168581,0.5841163361,0.1737549413
 C,0,4.0464412825,0.3462326672,-1.082187967
 C,0,2.8468233589,-0.355664973,-1.1950869861
 C,0,2.764787259,-0.5863140122,1.2191552015
 C,0,3.9634759152,0.1186425496,1.3219349423
 H,0,5.548646929,1.1190817533,0.2570235426
 H,0,4.5504598332,0.6977281259,-1.981212379
 H,0,2.4197984818,-0.5522255141,-2.1795002562
 H,0,2.2752654438,-0.9650900023,2.1174396536
 H,0,4.4027291721,0.2924001455,2.3030960029
 H,0,2.0648415265,-3.0546965645,0.610804361
 H,0,2.0411428925,-2.8594043472,-1.2087546692
 H,0,-0.4129401226,-3.1624861236,-1.2131565679
 H,0,-0.3826644319,-3.3391776979,0.627504315
 C,0,-1.7100894569,3.1140644597,-0.0020210596
 C,0,-0.6921942379,4.0611839797,0.1056392286
 C,0,0.6251964483,3.6299497029,0.1697047011
 C,0,-4.3057169234,-0.2825475243,-0.4297525477
 C,0,-3.2357796247,-1.3458527523,-0.1275339908
 H,0,-2.7581162225,3.3994433158,-0.0564839335
 H,0,-0.9311928711,5.1219949619,0.1383292774
 H,0,1.446906867,4.3366732107,0.2545382156
 H,0,-5.1723097421,-0.3222559902,0.237055327
 H,0,-4.6395833937,-0.2746548277,-1.4732451958
 H,0,-3.1933920399,-2.1064251263,-0.9184120057
 C,0,-3.4044471356,-1.9966368548,1.2334070741
 H,0,-4.3190923004,-2.6016967387,1.2615889959
 H,0,-2.5567233139,-2.650219466,1.4695979698
 H,0,-3.4723452337,-1.2311873969,2.0190271139
 Recover connectivity data from disk.
 NAtoms=     40 NQM=       40 NQMF=       0 NMMI=      0 NMMIF=      0
                NMic=       0 NMicF=      0.
                    Isotopes and Nuclear Properties:
 (Nuclear quadrupole moments (NQMom) in fm**2, nuclear magnetic moments (NMagM)
  in nuclear magnetons)

  Atom         1           2           3           4           5           6           7           8           9          10
 IAtWgt=         106          12          12          12          14          12          12          14          12           1
 AtmWgt= 105.9032000  12.0000000  12.0000000  12.0000000  14.0030740  12.0000000  12.0000000  14.0030740  12.0000000   1.0078250
 NucSpn=           0           0           0           0           2           0           0           2           0           1
 AtZEff=-237.3600000  -3.6000000  -3.6000000  -3.6000000  -4.5500000  -3.6000000  -3.6000000  -4.5500000  -3.6000000  -1.0000000
 NQMom=    0.0000000   0.0000000   0.0000000   0.0000000   2.0440000   0.0000000   0.0000000   2.0440000   0.0000000   0.0000000
 NMagM=    0.0000000   0.0000000   0.0000000   0.0000000   0.4037610   0.0000000   0.0000000   0.4037610   0.0000000   2.7928460
 AtZNuc=  46.0000000   6.0000000   6.0000000   6.0000000   7.0000000   6.0000000   6.0000000   7.0000000   6.0000000   1.0000000

  Atom        11          12          13          14          15          16          17          18          19          20
 IAtWgt=          16          12          12          12          12          12           1           1           1           1
 AtmWgt=  15.9949146  12.0000000  12.0000000  12.0000000  12.0000000  12.0000000   1.0078250   1.0078250   1.0078250   1.0078250
 NucSpn=           0           0           0           0           0           0           1           1           1           1
 AtZEff=  -5.6000000  -3.6000000  -3.6000000  -3.6000000  -3.6000000  -3.6000000  -1.0000000  -1.0000000  -1.0000000  -1.0000000
 NQMom=    0.0000000   0.0000000   0.0000000   0.0000000   0.0000000   0.0000000   0.0000000   0.0000000   0.0000000   0.0000000
 NMagM=    0.0000000   0.0000000   0.0000000   0.0000000   0.0000000   0.0000000   2.7928460   2.7928460   2.7928460   2.7928460
 AtZNuc=   8.0000000   6.0000000   6.0000000   6.0000000   6.0000000   6.0000000   1.0000000   1.0000000   1.0000000   1.0000000

  Atom        21          22          23          24          25          26          27          28          29          30
 IAtWgt=           1           1           1           1           1          12          12          12          12          12
 AtmWgt=   1.0078250   1.0078250   1.0078250   1.0078250   1.0078250  12.0000000  12.0000000  12.0000000  12.0000000  12.0000000
 NucSpn=           1           1           1           1           1           0           0           0           0           0
 AtZEff=  -1.0000000  -1.0000000  -1.0000000  -1.0000000  -1.0000000  -3.6000000  -3.6000000  -3.6000000  -3.6000000  -3.6000000
 NQMom=    0.0000000   0.0000000   0.0000000   0.0000000   0.0000000   0.0000000   0.0000000   0.0000000   0.0000000   0.0000000
 NMagM=    2.7928460   2.7928460   2.7928460   2.7928460   2.7928460   0.0000000   0.0000000   0.0000000   0.0000000   0.0000000
 AtZNuc=   1.0000000   1.0000000   1.0000000   1.0000000   1.0000000   6.0000000   6.0000000   6.0000000   6.0000000   6.0000000

  Atom        31          32          33          34          35          36          37          38          39          40
 IAtWgt=           1           1           1           1           1           1          12           1           1           1
 AtmWgt=   1.0078250   1.0078250   1.0078250   1.0078250   1.0078250   1.0078250  12.0000000   1.0078250   1.0078250   1.0078250
 NucSpn=           1           1           1           1           1           1           0           1           1           1
 AtZEff=  -1.0000000  -1.0000000  -1.0000000  -1.0000000  -1.0000000  -1.0000000  -3.6000000  -1.0000000  -1.0000000  -1.0000000
 NQMom=    0.0000000   0.0000000   0.0000000   0.0000000   0.0000000   0.0000000   0.0000000   0.0000000   0.0000000   0.0000000
 NMagM=    2.7928460   2.7928460   2.7928460   2.7928460   2.7928460   2.7928460   0.0000000   2.7928460   2.7928460   2.7928460
 AtZNuc=   1.0000000   1.0000000   1.0000000   1.0000000   1.0000000   1.0000000   6.0000000   1.0000000   1.0000000   1.0000000
 Leave Link  101 at Thu Jun  2 15:00:57 2016, MaxMem=   268435456 cpu:         1.2
 (Enter /afs/crc.nd.edu/x86_64_linux/gaussian/09D01/pgi12.8/g09/l103.exe)

 GradGradGradGradGradGradGradGradGradGradGradGradGradGradGradGradGradGrad
 Berny optimization.
 Initialization pass.
                           ----------------------------
                           !    Initial Parameters    !
                           ! (Angstroms and Degrees)  !
 --------------------------                            --------------------------
 ! Name  Definition              Value          Derivative Info.                !
 --------------------------------------------------------------------------------
 ! R1    R(1,2)                  2.0831         calculate D2E/DX2 analytically  !
 ! R2    R(1,3)                  2.341          calculate D2E/DX2 analytically  !
 ! R3    R(1,4)                  2.0822         calculate D2E/DX2 analytically  !
 ! R4    R(1,5)                  2.1409         calculate D2E/DX2 analytically  !
 ! R5    R(1,8)                  2.24           calculate D2E/DX2 analytically  !
 ! R6    R(2,3)                  1.4111         calculate D2E/DX2 analytically  !
 ! R7    R(2,24)                 1.0923         calculate D2E/DX2 analytically  !
 ! R8    R(2,25)                 1.0917         calculate D2E/DX2 analytically  !
 ! R9    R(3,22)                 1.0882         calculate D2E/DX2 analytically  !
 ! R10   R(3,23)                 1.0884         calculate D2E/DX2 analytically  !
 ! R11   R(4,14)                 1.3971         calculate D2E/DX2 analytically  !
 ! R12   R(4,15)                 1.3973         calculate D2E/DX2 analytically  !
 ! R13   R(5,6)                  1.2862         calculate D2E/DX2 analytically  !
 ! R14   R(5,30)                 1.4753         calculate D2E/DX2 analytically  !
 ! R15   R(6,7)                  1.4654         calculate D2E/DX2 analytically  !
 ! R16   R(6,11)                 1.326          calculate D2E/DX2 analytically  !
 ! R17   R(7,8)                  1.3494         calculate D2E/DX2 analytically  !
 ! R18   R(7,26)                 1.3862         calculate D2E/DX2 analytically  !
 ! R19   R(8,9)                  1.3305         calculate D2E/DX2 analytically  !
 ! R20   R(9,10)                 1.09           calculate D2E/DX2 analytically  !
 ! R21   R(9,28)                 1.3956         calculate D2E/DX2 analytically  !
 ! R22   R(11,29)                1.4543         calculate D2E/DX2 analytically  !
 ! R23   R(12,13)                1.3947         calculate D2E/DX2 analytically  !
 ! R24   R(12,16)                1.3949         calculate D2E/DX2 analytically  !
 ! R25   R(12,17)                1.0884         calculate D2E/DX2 analytically  !
 ! R26   R(13,14)                1.3944         calculate D2E/DX2 analytically  !
 ! R27   R(13,18)                1.089          calculate D2E/DX2 analytically  !
 ! R28   R(14,19)                1.0909         calculate D2E/DX2 analytically  !
 ! R29   R(15,16)                1.3944         calculate D2E/DX2 analytically  !
 ! R30   R(15,20)                1.0909         calculate D2E/DX2 analytically  !
 ! R31   R(16,21)                1.089          calculate D2E/DX2 analytically  !
 ! R32   R(26,27)                1.3945         calculate D2E/DX2 analytically  !
 ! R33   R(26,31)                1.0876         calculate D2E/DX2 analytically  !
 ! R34   R(27,28)                1.3877         calculate D2E/DX2 analytically  !
 ! R35   R(27,32)                1.0879         calculate D2E/DX2 analytically  !
 ! R36   R(28,33)                1.0871         calculate D2E/DX2 analytically  !
 ! R37   R(29,30)                1.5384         calculate D2E/DX2 analytically  !
 ! R38   R(29,34)                1.0942         calculate D2E/DX2 analytically  !
 ! R39   R(29,35)                1.0956         calculate D2E/DX2 analytically  !
 ! R40   R(30,36)                1.0981         calculate D2E/DX2 analytically  !
 ! R41   R(30,37)                1.5179         calculate D2E/DX2 analytically  !
 ! R42   R(37,38)                1.097          calculate D2E/DX2 analytically  !
 ! R43   R(37,39)                1.0962         calculate D2E/DX2 analytically  !
 ! R44   R(37,40)                1.099          calculate D2E/DX2 analytically  !
 ! A1    A(2,1,4)               92.6776         calculate D2E/DX2 analytically  !
 ! A2    A(2,1,5)               98.0402         calculate D2E/DX2 analytically  !
 ! A3    A(3,1,4)               56.0904         calculate D2E/DX2 analytically  !
 ! A4    A(3,1,5)              134.5963         calculate D2E/DX2 analytically  !
 ! A5    A(3,1,8)              148.8702         calculate D2E/DX2 analytically  !
 ! A6    A(4,1,8)               92.8915         calculate D2E/DX2 analytically  !
 ! A7    A(5,1,8)               76.3769         calculate D2E/DX2 analytically  !
 ! A8    A(1,2,24)             105.4721         calculate D2E/DX2 analytically  !
 ! A9    A(1,2,25)             106.9093         calculate D2E/DX2 analytically  !
 ! A10   A(3,2,24)             119.4733         calculate D2E/DX2 analytically  !
 ! A11   A(3,2,25)             119.0186         calculate D2E/DX2 analytically  !
 ! A12   A(24,2,25)            115.7294         calculate D2E/DX2 analytically  !
 ! A13   A(1,3,22)             117.7345         calculate D2E/DX2 analytically  !
 ! A14   A(1,3,23)             115.3386         calculate D2E/DX2 analytically  !
 ! A15   A(2,3,22)             118.7131         calculate D2E/DX2 analytically  !
 ! A16   A(2,3,23)             118.7782         calculate D2E/DX2 analytically  !
 ! A17   A(22,3,23)            114.4555         calculate D2E/DX2 analytically  !
 ! A18   A(1,4,14)             116.6402         calculate D2E/DX2 analytically  !
 ! A19   A(1,4,15)             115.8196         calculate D2E/DX2 analytically  !
 ! A20   A(14,4,15)            120.5477         calculate D2E/DX2 analytically  !
 ! A21   A(1,5,6)              114.0253         calculate D2E/DX2 analytically  !
 ! A22   A(1,5,30)             138.4529         calculate D2E/DX2 analytically  !
 ! A23   A(6,5,30)             107.3479         calculate D2E/DX2 analytically  !
 ! A24   A(5,6,7)              122.568          calculate D2E/DX2 analytically  !
 ! A25   A(5,6,11)             117.8571         calculate D2E/DX2 analytically  !
 ! A26   A(7,6,11)             119.5717         calculate D2E/DX2 analytically  !
 ! A27   A(6,7,8)              113.9514         calculate D2E/DX2 analytically  !
 ! A28   A(6,7,26)             122.9494         calculate D2E/DX2 analytically  !
 ! A29   A(8,7,26)             123.0984         calculate D2E/DX2 analytically  !
 ! A30   A(1,8,7)              113.0339         calculate D2E/DX2 analytically  !
 ! A31   A(1,8,9)              128.3861         calculate D2E/DX2 analytically  !
 ! A32   A(7,8,9)              118.5703         calculate D2E/DX2 analytically  !
 ! A33   A(8,9,10)             116.4068         calculate D2E/DX2 analytically  !
 ! A34   A(8,9,28)             122.1992         calculate D2E/DX2 analytically  !
 ! A35   A(10,9,28)            121.3939         calculate D2E/DX2 analytically  !
 ! A36   A(6,11,29)            105.7921         calculate D2E/DX2 analytically  !
 ! A37   A(13,12,16)           120.0311         calculate D2E/DX2 analytically  !
 ! A38   A(13,12,17)           119.9848         calculate D2E/DX2 analytically  !
 ! A39   A(16,12,17)           119.9766         calculate D2E/DX2 analytically  !
 ! A40   A(12,13,14)           120.1931         calculate D2E/DX2 analytically  !
 ! A41   A(12,13,18)           120.2123         calculate D2E/DX2 analytically  !
 ! A42   A(14,13,18)           119.5911         calculate D2E/DX2 analytically  !
 ! A43   A(4,14,13)            119.5094         calculate D2E/DX2 analytically  !
 ! A44   A(4,14,19)            120.457          calculate D2E/DX2 analytically  !
 ! A45   A(13,14,19)           120.0335         calculate D2E/DX2 analytically  !
 ! A46   A(4,15,16)            119.4947         calculate D2E/DX2 analytically  !
 ! A47   A(4,15,20)            120.4655         calculate D2E/DX2 analytically  !
 ! A48   A(16,15,20)           120.0397         calculate D2E/DX2 analytically  !
 ! A49   A(12,16,15)           120.2            calculate D2E/DX2 analytically  !
 ! A50   A(12,16,21)           120.2022         calculate D2E/DX2 analytically  !
 ! A51   A(15,16,21)           119.5931         calculate D2E/DX2 analytically  !
 ! A52   A(7,26,27)            118.0243         calculate D2E/DX2 analytically  !
 ! A53   A(7,26,31)            120.0351         calculate D2E/DX2 analytically  !
 ! A54   A(27,26,31)           121.9405         calculate D2E/DX2 analytically  !
 ! A55   A(26,27,28)           119.0426         calculate D2E/DX2 analytically  !
 ! A56   A(26,27,32)           120.2797         calculate D2E/DX2 analytically  !
 ! A57   A(28,27,32)           120.6776         calculate D2E/DX2 analytically  !
 ! A58   A(9,28,27)            119.0645         calculate D2E/DX2 analytically  !
 ! A59   A(9,28,33)            119.6596         calculate D2E/DX2 analytically  !
 ! A60   A(27,28,33)           121.2758         calculate D2E/DX2 analytically  !
 ! A61   A(11,29,30)           104.0756         calculate D2E/DX2 analytically  !
 ! A62   A(11,29,34)           107.5161         calculate D2E/DX2 analytically  !
 ! A63   A(11,29,35)           107.0435         calculate D2E/DX2 analytically  !
 ! A64   A(30,29,34)           113.9555         calculate D2E/DX2 analytically  !
 ! A65   A(30,29,35)           113.8291         calculate D2E/DX2 analytically  !
 ! A66   A(34,29,35)           109.8365         calculate D2E/DX2 analytically  !
 ! A67   A(5,30,29)            101.9884         calculate D2E/DX2 analytically  !
 ! A68   A(5,30,36)            108.9791         calculate D2E/DX2 analytically  !
 ! A69   A(5,30,37)            110.1877         calculate D2E/DX2 analytically  !
 ! A70   A(29,30,36)           111.3517         calculate D2E/DX2 analytically  !
 ! A71   A(29,30,37)           113.2769         calculate D2E/DX2 analytically  !
 ! A72   A(36,30,37)           110.6761         calculate D2E/DX2 analytically  !
 ! A73   A(30,37,38)           110.6182         calculate D2E/DX2 analytically  !
 ! A74   A(30,37,39)           111.2771         calculate D2E/DX2 analytically  !
 ! A75   A(30,37,40)           110.4374         calculate D2E/DX2 analytically  !
 ! A76   A(38,37,39)           108.0828         calculate D2E/DX2 analytically  !
 ! A77   A(38,37,40)           108.3177         calculate D2E/DX2 analytically  !
 ! A78   A(39,37,40)           108.0014         calculate D2E/DX2 analytically  !
 ! A79   L(2,1,8,5,-1)         174.4171         calculate D2E/DX2 analytically  !
 ! A80   L(4,1,5,3,-1)         190.6867         calculate D2E/DX2 analytically  !
 ! A81   L(2,1,8,5,-2)         181.2581         calculate D2E/DX2 analytically  !
 ! A82   L(4,1,5,3,-2)         181.4262         calculate D2E/DX2 analytically  !
 ! D1    D(4,1,2,24)          -120.5173         calculate D2E/DX2 analytically  !
 ! D2    D(4,1,2,25)           115.7756         calculate D2E/DX2 analytically  !
 ! D3    D(5,1,2,24)            58.7438         calculate D2E/DX2 analytically  !
 ! D4    D(5,1,2,25)           -64.9633         calculate D2E/DX2 analytically  !
 ! D5    D(24,2,8,7)            56.4747         calculate D2E/DX2 analytically  !
 ! D6    D(24,2,8,9)          -121.6701         calculate D2E/DX2 analytically  !
 ! D7    D(25,2,8,7)           -65.8233         calculate D2E/DX2 analytically  !
 ! D8    D(25,2,8,9)           116.0318         calculate D2E/DX2 analytically  !
 ! D9    D(4,1,3,22)            67.9668         calculate D2E/DX2 analytically  !
 ! D10   D(4,1,3,23)           -72.0717         calculate D2E/DX2 analytically  !
 ! D11   D(5,1,3,22)          -113.4594         calculate D2E/DX2 analytically  !
 ! D12   D(5,1,3,23)           106.502          calculate D2E/DX2 analytically  !
 ! D13   D(8,1,3,22)            73.429          calculate D2E/DX2 analytically  !
 ! D14   D(8,1,3,23)           -66.6096         calculate D2E/DX2 analytically  !
 ! D15   D(2,1,4,14)           105.3596         calculate D2E/DX2 analytically  !
 ! D16   D(2,1,4,15)          -103.6667         calculate D2E/DX2 analytically  !
 ! D17   D(3,1,4,14)           103.8315         calculate D2E/DX2 analytically  !
 ! D18   D(3,1,4,15)          -105.1948         calculate D2E/DX2 analytically  !
 ! D19   D(8,1,4,14)           -73.3442         calculate D2E/DX2 analytically  !
 ! D20   D(8,1,4,15)            77.6294         calculate D2E/DX2 analytically  !
 ! D21   D(14,4,5,6)           -69.1563         calculate D2E/DX2 analytically  !
 ! D22   D(14,4,5,30)          116.9819         calculate D2E/DX2 analytically  !
 ! D23   D(15,4,5,6)            76.8327         calculate D2E/DX2 analytically  !
 ! D24   D(15,4,5,30)          -97.0291         calculate D2E/DX2 analytically  !
 ! D25   D(2,1,5,6)           -176.9697         calculate D2E/DX2 analytically  !
 ! D26   D(2,1,5,30)             8.6343         calculate D2E/DX2 analytically  !
 ! D27   D(3,1,5,6)           -174.5699         calculate D2E/DX2 analytically  !
 ! D28   D(3,1,5,30)            11.0342         calculate D2E/DX2 analytically  !
 ! D29   D(8,1,5,6)              1.7722         calculate D2E/DX2 analytically  !
 ! D30   D(8,1,5,30)          -172.6237         calculate D2E/DX2 analytically  !
 ! D31   D(3,1,8,7)            173.2072         calculate D2E/DX2 analytically  !
 ! D32   D(3,1,8,9)             -5.6283         calculate D2E/DX2 analytically  !
 ! D33   D(4,1,8,7)            177.744          calculate D2E/DX2 analytically  !
 ! D34   D(4,1,8,9)             -1.0915         calculate D2E/DX2 analytically  !
 ! D35   D(5,1,8,7)             -1.7514         calculate D2E/DX2 analytically  !
 ! D36   D(5,1,8,9)            179.4131         calculate D2E/DX2 analytically  !
 ! D37   D(24,2,3,22)         -148.9543         calculate D2E/DX2 analytically  !
 ! D38   D(24,2,3,23)           -1.8755         calculate D2E/DX2 analytically  !
 ! D39   D(25,2,3,22)            3.1444         calculate D2E/DX2 analytically  !
 ! D40   D(25,2,3,23)          150.2232         calculate D2E/DX2 analytically  !
 ! D41   D(1,4,14,13)          147.8029         calculate D2E/DX2 analytically  !
 ! D42   D(1,4,14,19)          -32.2769         calculate D2E/DX2 analytically  !
 ! D43   D(15,4,14,13)          -1.722          calculate D2E/DX2 analytically  !
 ! D44   D(15,4,14,19)         178.1982         calculate D2E/DX2 analytically  !
 ! D45   D(1,4,15,16)         -147.9246         calculate D2E/DX2 analytically  !
 ! D46   D(1,4,15,20)           32.2088         calculate D2E/DX2 analytically  !
 ! D47   D(14,4,15,16)           1.8371         calculate D2E/DX2 analytically  !
 ! D48   D(14,4,15,20)        -178.0295         calculate D2E/DX2 analytically  !
 ! D49   D(1,5,6,7)             -1.6806         calculate D2E/DX2 analytically  !
 ! D50   D(1,5,6,11)           178.9694         calculate D2E/DX2 analytically  !
 ! D51   D(30,5,6,7)           174.4286         calculate D2E/DX2 analytically  !
 ! D52   D(30,5,6,11)           -4.9213         calculate D2E/DX2 analytically  !
 ! D53   D(1,5,30,29)         -171.9351         calculate D2E/DX2 analytically  !
 ! D54   D(1,5,30,36)          -54.1189         calculate D2E/DX2 analytically  !
 ! D55   D(1,5,30,37)           67.5006         calculate D2E/DX2 analytically  !
 ! D56   D(6,5,30,29)           13.4267         calculate D2E/DX2 analytically  !
 ! D57   D(6,5,30,36)          131.2429         calculate D2E/DX2 analytically  !
 ! D58   D(6,5,30,37)         -107.1376         calculate D2E/DX2 analytically  !
 ! D59   D(5,6,7,8)              0.0884         calculate D2E/DX2 analytically  !
 ! D60   D(5,6,7,26)          -179.6082         calculate D2E/DX2 analytically  !
 ! D61   D(11,6,7,8)           179.4276         calculate D2E/DX2 analytically  !
 ! D62   D(11,6,7,26)           -0.2689         calculate D2E/DX2 analytically  !
 ! D63   D(5,6,11,29)           -6.719          calculate D2E/DX2 analytically  !
 ! D64   D(7,6,11,29)          173.9109         calculate D2E/DX2 analytically  !
 ! D65   D(6,7,8,1)              1.4711         calculate D2E/DX2 analytically  !
 ! D66   D(6,7,8,9)           -179.5683         calculate D2E/DX2 analytically  !
 ! D67   D(26,7,8,1)          -178.8329         calculate D2E/DX2 analytically  !
 ! D68   D(26,7,8,9)             0.1278         calculate D2E/DX2 analytically  !
 ! D69   D(6,7,26,27)          179.4159         calculate D2E/DX2 analytically  !
 ! D70   D(6,7,26,31)           -0.5053         calculate D2E/DX2 analytically  !
 ! D71   D(8,7,26,27)           -0.2531         calculate D2E/DX2 analytically  !
 ! D72   D(8,7,26,31)          179.8257         calculate D2E/DX2 analytically  !
 ! D73   D(1,8,9,10)            -1.1117         calculate D2E/DX2 analytically  !
 ! D74   D(1,8,9,28)           178.8966         calculate D2E/DX2 analytically  !
 ! D75   D(7,8,9,10)          -179.8914         calculate D2E/DX2 analytically  !
 ! D76   D(7,8,9,28)             0.1168         calculate D2E/DX2 analytically  !
 ! D77   D(8,9,28,27)           -0.2251         calculate D2E/DX2 analytically  !
 ! D78   D(8,9,28,33)          179.8304         calculate D2E/DX2 analytically  !
 ! D79   D(10,9,28,27)         179.7836         calculate D2E/DX2 analytically  !
 ! D80   D(10,9,28,33)          -0.1609         calculate D2E/DX2 analytically  !
 ! D81   D(6,11,29,30)          14.5634         calculate D2E/DX2 analytically  !
 ! D82   D(6,11,29,34)         135.767          calculate D2E/DX2 analytically  !
 ! D83   D(6,11,29,35)        -106.2678         calculate D2E/DX2 analytically  !
 ! D84   D(16,12,13,14)          0.061          calculate D2E/DX2 analytically  !
 ! D85   D(16,12,13,18)       -179.2552         calculate D2E/DX2 analytically  !
 ! D86   D(17,12,13,14)        179.0649         calculate D2E/DX2 analytically  !
 ! D87   D(17,12,13,18)         -0.2513         calculate D2E/DX2 analytically  !
 ! D88   D(13,12,16,15)          0.0557         calculate D2E/DX2 analytically  !
 ! D89   D(13,12,16,21)        179.2648         calculate D2E/DX2 analytically  !
 ! D90   D(17,12,16,15)       -178.9483         calculate D2E/DX2 analytically  !
 ! D91   D(17,12,16,21)          0.2608         calculate D2E/DX2 analytically  !
 ! D92   D(12,13,14,4)           0.7654         calculate D2E/DX2 analytically  !
 ! D93   D(12,13,14,19)       -179.1552         calculate D2E/DX2 analytically  !
 ! D94   D(18,13,14,4)        -179.9142         calculate D2E/DX2 analytically  !
 ! D95   D(18,13,14,19)          0.1653         calculate D2E/DX2 analytically  !
 ! D96   D(4,15,16,12)          -0.9966         calculate D2E/DX2 analytically  !
 ! D97   D(4,15,16,21)         179.7895         calculate D2E/DX2 analytically  !
 ! D98   D(20,15,16,12)        178.8706         calculate D2E/DX2 analytically  !
 ! D99   D(20,15,16,21)         -0.3433         calculate D2E/DX2 analytically  !
 ! D100  D(7,26,27,28)           0.1346         calculate D2E/DX2 analytically  !
 ! D101  D(7,26,27,32)        -179.8849         calculate D2E/DX2 analytically  !
 ! D102  D(31,26,27,28)       -179.9458         calculate D2E/DX2 analytically  !
 ! D103  D(31,26,27,32)          0.0347         calculate D2E/DX2 analytically  !
 ! D104  D(26,27,28,9)           0.0904         calculate D2E/DX2 analytically  !
 ! D105  D(26,27,28,33)       -179.9661         calculate D2E/DX2 analytically  !
 ! D106  D(32,27,28,9)        -179.89           calculate D2E/DX2 analytically  !
 ! D107  D(32,27,28,33)          0.0535         calculate D2E/DX2 analytically  !
 ! D108  D(11,29,30,5)         -16.7034         calculate D2E/DX2 analytically  !
 ! D109  D(11,29,30,36)       -132.8065         calculate D2E/DX2 analytically  !
 ! D110  D(11,29,30,37)        101.682          calculate D2E/DX2 analytically  !
 ! D111  D(34,29,30,5)        -133.5072         calculate D2E/DX2 analytically  !
 ! D112  D(34,29,30,36)        110.3897         calculate D2E/DX2 analytically  !
 ! D113  D(34,29,30,37)        -15.1219         calculate D2E/DX2 analytically  !
 ! D114  D(35,29,30,5)          99.4685         calculate D2E/DX2 analytically  !
 ! D115  D(35,29,30,36)        -16.6346         calculate D2E/DX2 analytically  !
 ! D116  D(35,29,30,37)       -142.1462         calculate D2E/DX2 analytically  !
 ! D117  D(5,30,37,38)        -179.2483         calculate D2E/DX2 analytically  !
 ! D118  D(5,30,37,39)         -59.0889         calculate D2E/DX2 analytically  !
 ! D119  D(5,30,37,40)          60.8475         calculate D2E/DX2 analytically  !
 ! D120  D(29,30,37,38)         67.2302         calculate D2E/DX2 analytically  !
 ! D121  D(29,30,37,39)       -172.6105         calculate D2E/DX2 analytically  !
 ! D122  D(29,30,37,40)        -52.674          calculate D2E/DX2 analytically  !
 ! D123  D(36,30,37,38)        -58.6427         calculate D2E/DX2 analytically  !
 ! D124  D(36,30,37,39)         61.5167         calculate D2E/DX2 analytically  !
 ! D125  D(36,30,37,40)       -178.5469         calculate D2E/DX2 analytically  !
 --------------------------------------------------------------------------------
 Trust Radius=3.00D-01 FncErr=1.00D-07 GrdErr=1.00D-07
 Number of steps in this run=      2 maximum allowed number of steps=      2.
 GradGradGradGradGradGradGradGradGradGradGradGradGradGradGradGradGradGrad

 Leave Link  103 at Thu Jun  2 15:00:57 2016, MaxMem=   268435456 cpu:         0.1
 (Enter /afs/crc.nd.edu/x86_64_linux/gaussian/09D01/pgi12.8/g09/l202.exe)
                          Input orientation:                          
 ---------------------------------------------------------------------
 Center     Atomic      Atomic             Coordinates (Angstroms)
 Number     Number       Type             X           Y           Z
 ---------------------------------------------------------------------
      1         46           0        0.120717   -0.875909   -0.102578
      2          6           0        0.099870   -2.952049   -0.271960
      3          6           0        1.498052   -2.761399   -0.270625
      4          6           0        2.200714   -0.804263   -0.040468
      5          7           0       -1.994357   -0.549474   -0.160704
      6          6           0       -2.333651    0.690891   -0.135938
      7          6           0       -1.352845    1.775164   -0.037272
      8          7           0       -0.072884    1.352230    0.022571
      9          6           0        0.893580    2.261188    0.122640
     10          1           0        1.914079    1.880856    0.166570
     11          8           0       -3.626460    0.980821   -0.189978
     12          6           0        4.604417    0.584116    0.173755
     13          6           0        4.046441    0.346233   -1.082188
     14          6           0        2.846823   -0.355665   -1.195087
     15          6           0        2.764787   -0.586314    1.219155
     16          6           0        3.963476    0.118643    1.321935
     17          1           0        5.548647    1.119082    0.257024
     18          1           0        4.550460    0.697728   -1.981212
     19          1           0        2.419798   -0.552226   -2.179500
     20          1           0        2.275265   -0.965090    2.117440
     21          1           0        4.402729    0.292400    2.303096
     22          1           0        2.064842   -3.054697    0.610804
     23          1           0        2.041143   -2.859404   -1.208755
     24          1           0       -0.412940   -3.162486   -1.213157
     25          1           0       -0.382664   -3.339178    0.627504
     26          6           0       -1.710089    3.114064   -0.002021
     27          6           0       -0.692194    4.061184    0.105639
     28          6           0        0.625196    3.629950    0.169705
     29          6           0       -4.305717   -0.282548   -0.429753
     30          6           0       -3.235780   -1.345853   -0.127534
     31          1           0       -2.758116    3.399443   -0.056484
     32          1           0       -0.931193    5.121995    0.138329
     33          1           0        1.446907    4.336673    0.254538
     34          1           0       -5.172310   -0.322256    0.237055
     35          1           0       -4.639583   -0.274655   -1.473245
     36          1           0       -3.193392   -2.106425   -0.918412
     37          6           0       -3.404447   -1.996637    1.233407
     38          1           0       -4.319092   -2.601697    1.261589
     39          1           0       -2.556723   -2.650219    1.469598
     40          1           0       -3.472345   -1.231187    2.019027
 ---------------------------------------------------------------------
                    Distance matrix (angstroms):
                    1          2          3          4          5
     1  Pd   0.000000
     2  C    2.083143   0.000000
     3  C    2.341019   1.411121   0.000000
     4  C    2.082157   3.013323   2.092149   0.000000
     5  N    2.140905   3.189127   4.135410   4.204520   0.000000
     6  C    2.912026   4.383097   5.159302   4.775464   1.286172
     7  C    3.033783   4.950960   5.363066   4.391040   2.414688
     8  N    2.240032   4.317802   4.413134   3.134275   2.709636
     9  C    3.238737   5.288055   5.074094   3.336494   4.039838
    10  H    3.299748   5.180795   4.681319   2.708300   4.614053
    11  O    4.182872   5.418461   6.345970   6.096297   2.237503
    12  C    4.723516   5.744047   4.586878   2.784112   6.703783
    13  C    4.226651   5.206780   4.100036   2.411541   6.175975
    14  C    2.982597   3.890903   2.908844   1.397084   4.954244
    15  C    2.970177   3.862889   2.924903   1.397259   4.955282
    16  C    4.217246   5.186242   4.112080   2.411479   6.175789
    17  H    5.794111   6.822251   5.634170   3.872521   7.736633
    18  H    5.062433   6.004179   4.920251   3.397613   6.906837
    19  H    3.115149   3.844468   3.061678   2.164943   4.853897
    20  H    3.094917   3.793361   3.087660   2.165177   4.857196
    21  H    5.048549   5.972601   4.938308   3.397622   6.906647
    22  H    3.005936   2.156600   1.088206   2.346714   4.832024
    23  H    2.974209   2.157477   1.088411   2.369380   4.766492
    24  H    2.597424   1.092295   2.168208   3.710471   3.230537
    25  H    2.618035   1.091670   2.162767   3.680465   3.316817
    26  C    4.391110   6.336131   6.699656   5.536168   3.677975
    27  C    5.007900   7.067913   7.175402   5.662406   4.798410
    28  C    4.542180   6.617684   6.465687   4.710485   4.943563
    29  C    4.477995   5.153672   6.312984   6.538912   2.342226
    30  C    3.389327   3.705035   4.943016   5.464097   1.475279
    31  H    5.154458   6.968212   7.491115   6.500877   4.023449
    32  H    6.094210   8.149946   8.259321   6.705322   5.778001
    33  H    5.390484   7.430827   7.117657   5.204276   5.990756
    34  H    5.332730   5.913610   7.120456   7.393972   3.210798
    35  H    4.990059   5.574401   6.730584   7.008780   2.965723
    36  H    3.628095   3.461005   4.781032   5.618077   2.106158
    37  C    3.932896   3.931816   5.184735   5.870463   2.454828
    38  H    4.954917   4.690602   6.017670   6.887234   3.411588
    39  H    3.576115   3.190864   4.413835   5.321753   2.717954
    40  H    4.187783   4.579379   5.682333   6.050403   2.720370
                    6          7          8          9         10
     6  C    0.000000
     7  C    1.465389   0.000000
     8  N    2.360839   1.349354   0.000000
     9  C    3.598293   2.303957   1.330516   0.000000
    10  H    4.421621   3.274983   2.061117   1.089954   0.000000
    11  O    1.326023   2.413219   3.579249   4.708273   5.624478
    12  C    6.945797   6.078824   4.742362   4.072529   2.986554
    13  C    6.459083   5.682076   4.381936   3.880618   2.908854
    14  C    5.390212   4.849555   3.595036   3.521290   2.779595
    15  C    5.427854   4.910202   3.638976   3.579389   2.813995
    16  C    6.488965   5.731909   4.416139   3.931039   2.939437
    17  H    7.903694   6.938850   5.631246   4.795009   3.714642
    18  H    7.127136   6.307835   5.081223   4.499263   3.600453
    19  H    5.321350   4.923284   3.832692   3.942650   3.417555
    20  H    5.390927   5.031398   3.907973   4.036973   3.469259
    21  H    7.175409   6.387687   5.133726   4.576531   3.644354
    22  H    5.825271   5.952154   4.933243   5.465234   4.957797
    23  H    5.735360   5.862657   4.870640   5.413869   4.937381
    24  H    4.438248   5.162027   4.693114   5.736514   5.723107
    25  H    4.542097   5.247826   4.740381   5.766089   5.721559
    26  C    2.505700   1.386189   2.405225   2.742633   3.831947
    27  C    3.756543   2.383856   2.780086   2.398949   3.398559
    28  C    4.181658   2.719506   2.386833   1.395619   2.172684
    29  C    2.218773   3.620452   4.560040   5.814501   6.612244
    30  C    2.227607   3.646140   4.160059   5.488619   6.084339
    31  H    2.742761   2.147892   3.377544   3.829177   4.917852
    32  H    4.655834   3.377854   3.867974   3.393267   4.312928
    33  H    5.266575   3.805928   3.357153   2.152024   2.501405
    34  H    3.037034   4.366090   5.371597   6.594111   7.421292
    35  H    2.835136   4.131153   5.073358   6.292317   7.091241
    36  H    3.029257   4.385289   4.752401   6.071505   6.569768
    37  C    3.200705   4.477743   4.876510   6.151091   6.667819
    38  H    4.090989   5.444500   5.932873   7.219197   7.755306
    39  H    3.713559   4.827422   4.927773   6.151489   6.497430
    40  H    3.104011   4.214119   4.713409   5.903751   6.490761
                   11         12         13         14         15
    11  O    0.000000
    12  C    8.248455   0.000000
    13  C    7.750623   1.394747   0.000000
    14  C    6.685794   2.417861   1.394450   0.000000
    15  C    6.729756   2.418058   2.794362   2.426622   0.000000
    16  C    7.786935   1.394915   2.416296   2.794151   1.394411
    17  H    9.187030   1.088436   2.155784   3.403433   3.403520
    18  H    8.375600   2.158635   1.088958   2.151745   3.883265
    19  H    6.547188   3.406118   2.158075   1.090897   3.416290
    20  H    6.628809   3.406303   3.885132   3.416271   1.090879
    21  H    8.435474   2.158673   3.404407   3.883055   2.151725
    22  H    7.022647   4.458858   4.284773   3.340286   2.636840
    23  H    6.921485   4.509938   3.783299   2.630213   3.403725
    24  H    5.342340   6.413612   5.675768   4.301701   4.759281
    25  H    5.463778   6.361533   6.010181   4.759494   4.223122
    26  C    2.873766   6.804743   6.478063   5.850460   5.933683
    27  C    4.264498   6.336302   6.137301   5.807331   5.898294
    28  C    5.022334   5.011119   4.904584   4.762710   4.843147
    29  C    1.454298   8.972503   8.401166   7.193741   7.266581
    30  C    2.360072   8.079866   7.536926   6.254454   6.196553
    31  H    2.573242   7.885808   7.528358   6.841974   6.929356
    32  H    4.951926   7.157973   7.005313   6.786469   6.885728
    33  H    6.099048   4.904904   4.946517   5.106781   5.186820
    34  H    2.066402   9.818854   9.336629   8.146081   8.001984
    35  H    2.061410   9.428767   8.716963   7.492010   7.884850
    36  H    3.201445   8.320917   7.645753   6.294912   6.509979
    37  C    3.307653   8.480864   8.146579   6.904256   6.328402
    38  H    3.926986   9.537390   9.174188   7.901282   7.365115
    39  H    4.133157   7.963797   7.687140   6.447003   5.713222
    40  H    3.129926   8.481418   8.284802   7.143456   6.321193
                   16         17         18         19         20
    16  C    0.000000
    17  H    2.155848   0.000000
    18  H    3.404508   2.486688   0.000000
    19  H    3.884978   4.303442   2.478189   0.000000
    20  H    2.158091   4.303481   4.973974   4.319148   0.000000
    21  H    1.088950   2.486552   4.305974   4.973839   2.478276
    22  H    3.765714   5.448164   5.193991   3.764858   2.584702
    23  H    4.355286   5.502676   4.421148   2.531561   3.834946
    24  H    6.028724   7.485571   6.334548   3.971359   4.811223
    25  H    5.597114   7.429252   6.887505   4.847698   3.862744
    26  C    6.550936   7.532351   6.996453   5.936251   6.083968
    27  C    6.220794   6.901230   6.569110   6.015805   6.173863
    28  C    4.980062   5.527427   5.350893   5.121518   5.256500
    29  C    8.462205   9.977210   9.044326   6.954632   7.089667
    30  C    7.488323   9.131809   8.260622   6.068441   5.962928
    31  H    7.605491   8.619782   8.026153   6.850816   7.007855
    32  H    7.098749   7.617462   7.356297   6.985575   7.158970
    33  H    5.026354   5.213173   5.279445   5.547287   5.680253
    34  H    9.210534  10.817429  10.024636   7.970742   7.708142
    35  H    9.054300  10.427673   9.255293   7.100050   7.822075
    36  H    7.822457   9.391953   8.304220   5.959345   6.358086
    37  C    7.666064   9.529896   8.992993   6.903340   5.839926
    38  H    8.718075  10.593660  10.003545   7.839265   6.848103
    39  H    7.085295   9.020809   8.580728   6.517919   5.158243
    40  H    7.589428   9.487187   9.169953   7.266772   5.754609
                   21         22         23         24         25
    21  H    0.000000
    22  H    4.419573   0.000000
    23  H    5.276747   1.830163   0.000000
    24  H    6.891367   3.078612   2.472732   0.000000
    25  H    6.236662   2.464040   3.078453   1.849370   0.000000
    26  C    7.116313   7.258049   7.156136   6.522617   6.618360
    27  C    6.707518   7.648019   7.556011   7.348375   7.425194
    28  C    5.473605   6.852127   6.783566   7.009081   7.056494
    29  C    9.145275   7.025068   6.894176   4.905250   5.084400
    30  C    8.181604   5.617996   5.595158   3.528053   3.561417
    31  H    8.154694   8.084684   7.970809   7.063757   7.177717
    32  H    7.514115   8.721109   8.622769   8.409978   8.493034
    33  H    5.411988   7.425706   7.367352   7.864512   7.899691
    34  H    9.814667   7.744823   7.782120   5.729016   5.674061
    35  H    9.815586   7.551239   7.168193   5.125595   5.650293
    36  H    8.592644   5.557584   5.296379   2.988821   3.436528
    37  C    8.205847   5.605376   6.030172   4.036582   3.361652
    38  H    9.248281   6.432988   6.828001   4.657990   4.054800
    39  H    7.601823   4.718049   5.325195   3.472088   2.431114
    40  H    8.026133   5.997392   6.593043   4.851483   3.990750
                   26         27         28         29         30
    26  C    0.000000
    27  C    1.394538   0.000000
    28  C    2.397746   1.387655   0.000000
    29  C    4.296185   5.675579   6.323044   0.000000
    30  C    4.715331   5.979987   6.305085   1.538415   0.000000
    31  H    1.087551   2.175366   3.398691   4.011415   4.769806
    32  H    2.158278   1.087892   2.156277   6.396812   6.871307
    33  H    3.395176   2.161902   1.087135   7.409328   7.373238
    34  H    4.883894   6.269231   7.016804   1.094163   2.220546
    35  H    4.714855   6.072418   6.757450   1.095630   2.220151
    36  H    5.503950   6.733801   6.976504   2.191480   1.098069
    37  C    5.524165   6.732412   7.001997   2.552742   1.517936
    38  H    6.408864   7.673629   8.029422   2.870413   2.163417
    39  H    6.009111   7.097872   7.159250   3.503196   2.171018
    40  H    5.106016   6.276901   6.621216   2.755167   2.162599
                   31         32         33         34         35
    31  H    0.000000
    32  H    2.518489   0.000000
    33  H    4.319416   2.507109   0.000000
    34  H    4.445845   6.901934   8.094440   0.000000
    35  H    4.364187   6.743379   7.829109   1.791980   0.000000
    36  H    5.589899   7.647503   8.026313   2.904218   2.398894
    37  C    5.585628   7.615189   8.037701   2.630895   3.437550
    38  H    6.339373   8.508524   9.077548   2.640738   3.605157
    39  H    6.242428   8.051208   8.143838   3.712124   4.317631
    40  H    5.124511   7.096295   7.636330   2.625159   3.804388
                   36         37         38         39         40
    36  H    0.000000
    37  C    2.164930   0.000000
    38  H    2.502978   1.097027   0.000000
    39  H    2.530544   1.096172   1.775265   0.000000
    40  H    3.077727   1.098964   1.780165   1.775919   0.000000
 Stoichiometry    C17H19N2OPd(1+)
 Framework group  C1[X(C17H19N2OPd)]
 Deg. of freedom   114
 Full point group                 C1      NOp   1
 RotChk:  IX=0 Diff= 2.55D-15
 Largest Abelian subgroup         C1      NOp   1
 Largest concise Abelian subgroup C1      NOp   1
                         Standard orientation:                         
 ---------------------------------------------------------------------
 Center     Atomic      Atomic             Coordinates (Angstroms)
 Number     Number       Type             X           Y           Z
 ---------------------------------------------------------------------
      1         46           0        0.120458   -0.875570   -0.099432
      2          6           0        0.098306   -2.952030   -0.264689
      3          6           0        1.496615   -2.762313   -0.263013
      4          6           0        2.200470   -0.805193   -0.036393
      5          7           0       -1.994367   -0.547837   -0.159299
      6          6           0       -2.332842    0.692802   -0.137178
      7          6           0       -1.351360    1.776613   -0.040167
      8          7           0       -0.071714    1.352942    0.021178
      9          6           0        0.895308    2.261451    0.119935
     10          1           0        1.915528    1.880524    0.165148
     11          8           0       -3.625428    0.983489   -0.192462
     12          6           0        4.604993    0.582002    0.176303
     13          6           0        4.047504    0.341990   -1.079451
     14          6           0        2.847474   -0.359328   -1.191570
     15          6           0        2.764042   -0.585112    1.223084
     16          6           0        3.963150    0.119246    1.325078
     17          1           0        5.549538    1.116500    0.258993
     18          1           0        4.552220    0.691356   -1.978914
     19          1           0        2.420823   -0.557564   -2.175810
     20          1           0        2.273804   -0.961770    2.121869
     21          1           0        4.402015    0.294664    2.306117
     22          1           0        2.062755   -3.054233    0.619291
     23          1           0        2.040123   -2.862550   -1.200666
     24          1           0       -0.414160   -3.163998   -1.205729
     25          1           0       -0.384950   -3.337042    0.635296
     26          6           0       -1.707725    3.115820   -0.007767
     27          6           0       -0.689251    4.062470    0.098531
     28          6           0        0.627817    3.630483    0.164135
     29          6           0       -4.305408   -0.279900   -0.430070
     30          6           0       -3.236340   -1.343317   -0.125182
     31          1           0       -2.755533    3.401791   -0.063339
     32          1           0       -0.927556    5.123504    0.128985
     33          1           0        1.449957    4.336824    0.247984
     34          1           0       -5.172370   -0.317700    0.236369
     35          1           0       -4.638733   -0.273863   -1.473748
     36          1           0       -3.194055   -2.105491   -0.914522
     37          6           0       -3.406143   -1.991275    1.236965
     38          1           0       -4.321208   -2.595666    1.265881
     39          1           0       -2.558979   -2.644953    1.474895
     40          1           0       -3.473932   -1.224217    2.021024
 ---------------------------------------------------------------------
 Rotational constants (GHZ):      0.4073671      0.2358365      0.1617117
 Leave Link  202 at Thu Jun  2 15:00:57 2016, MaxMem=   268435456 cpu:         0.2
 (Enter /afs/crc.nd.edu/x86_64_linux/gaussian/09D01/pgi12.8/g09/l301.exe)
 Basis read from chk: "/scratch/Gau-23607.chk" (5D, 7F)
 Pseudo-potential data read from chk file.
 There are   442 symmetry adapted cartesian basis functions of A   symmetry.
 There are   420 symmetry adapted basis functions of A   symmetry.
   420 basis functions,   765 primitive gaussians,   442 cartesian basis functions
    80 alpha electrons       80 beta electrons
       nuclear repulsion energy      1873.9657884026 Hartrees.
 IExCor= 4235 DFT=T Ex+Corr=M06 ExCW=0 ScaHFX=  0.270000
 ScaDFX=  1.000000  1.000000  1.000000  1.000000 ScalE2=  1.000000  1.000000
 IRadAn=      5 IRanWt=     -1 IRanGd=            0 ICorTp=0 IEmpDi=131
 NAtoms=   40 NActive=   40 NUniq=   40 SFac= 1.00D+00 NAtFMM=   60 NAOKFM=F Big=F
 Integral buffers will be    131072 words long.
 Raffenetti 2 integral format.
 Two-electron integral symmetry is turned on.
 R6Disp:  Grimme-D3 Dispersion energy=       -0.0078190955 Hartrees.
 Nuclear repulsion after empirical dispersion term =     1873.9579693071 Hartrees.
 No density basis found on file 20724.
 Leave Link  301 at Thu Jun  2 15:00:57 2016, MaxMem=   268435456 cpu:         0.8
 (Enter /afs/crc.nd.edu/x86_64_linux/gaussian/09D01/pgi12.8/g09/l302.exe)
 NPDir=0 NMtPBC=     1 NCelOv=     1 NCel=       1 NClECP=     1 NCelD=      1
         NCelK=      1 NCelE2=     1 NClLst=     1 CellRange=     0.0.
 One-electron integrals computed using PRISM.
   1 Symmetry operations used in ECPInt.
 ECPInt:  NShTT=   10731 NPrTT=   56041 LenC2=    9833 LenP2D=   32304.
 LDataN:  DoStor=T MaxTD1= 5 Len=  102
 NBasis=   420 RedAO= T EigKep=  2.12D-06  NBF=   420
 NBsUse=   419 1.00D-06 EigRej=  4.82D-07 NBFU=   419
 Precomputing XC quadrature grid using
 IXCGrd= 4 IRadAn=           5 IRanWt=          -1 IRanGd=           0 AccXCQ= 0.00D+00.
 Defaulting to unpruned grid for atomic number  46.
 Generated NRdTot=       0 NPtTot=           0 NUsed=           0 NTot=          32
 NSgBfM=   442   442   442   442   442 MxSgAt=    40 MxSgA2=    40.
 Leave Link  302 at Thu Jun  2 15:00:59 2016, MaxMem=   268435456 cpu:        19.3
 (Enter /afs/crc.nd.edu/x86_64_linux/gaussian/09D01/pgi12.8/g09/l303.exe)
 DipDrv:  MaxL=1.
 Leave Link  303 at Thu Jun  2 15:01:00 2016, MaxMem=   268435456 cpu:         1.0
 (Enter /afs/crc.nd.edu/x86_64_linux/gaussian/09D01/pgi12.8/g09/l401.exe)
 Initial guess from the checkpoint file:  "/scratch/Gau-23607.chk"
 B after Tr=     0.000000    0.000000    0.000000
         Rot=    1.000000    0.000000    0.000000    0.000000 Ang=   0.00 deg.
 Guess basis will be translated and rotated to current coordinates.
 JPrj=2 DoOrth=T DoCkMO=T.
 Leave Link  401 at Thu Jun  2 15:01:01 2016, MaxMem=   268435456 cpu:         7.7
 (Enter /afs/crc.nd.edu/x86_64_linux/gaussian/09D01/pgi12.8/g09/l502.exe)
 Closed shell SCF:
 Using DIIS extrapolation, IDIIS=  1040.
 Integral symmetry usage will be decided dynamically.
 IVT=      611476 IEndB=      611476 NGot=   268435456 MDV=   268036427
 LenX=   268036427 LenY=   267840621
 Requested convergence on RMS density matrix=1.00D-08 within 128 cycles.
 Requested convergence on MAX density matrix=1.00D-06.
 Requested convergence on             energy=1.00D-06.
 No special actions if energy rises.
 Fock matrices will be formed incrementally for  20 cycles.

 Cycle   1  Pass 1  IDiag  1:
 FoFJK:  IHMeth= 1 ICntrl=       0 DoSepK=F KAlg= 0 I1Cent=   0 FoldK=F
 IRaf= 840000000 NMat=   1 IRICut=       1 DoRegI=T DoRafI=F ISym2E= 0.
 FoFCou: FMM=F IPFlag=           0 FMFlag=      100000 FMFlg1=           0
         NFxFlg=           0 DoJE=F BraDBF=F KetDBF=F FulRan=T
         wScrn=  0.000000 ICntrl=       0 IOpCl=  0 I1Cent=           0 NGrid=           0
         NMat0=    1 NMatS0=      1 NMatT0=    0 NMatD0=    1 NMtDS0=    0 NMtDT0=    0
 Symmetry not used in FoFCou.
 Defaulting to unpruned grid for atomic number  46.
 Defaulting to unpruned grid for atomic number  46.
 Defaulting to unpruned grid for atomic number  46.
 Defaulting to unpruned grid for atomic number  46.
 Defaulting to unpruned grid for atomic number  46.
 Defaulting to unpruned grid for atomic number  46.
 Defaulting to unpruned grid for atomic number  46.
 Defaulting to unpruned grid for atomic number  46.
 E= -969.905635159921    
 DIIS: error= 2.56D-09 at cycle   1 NSaved=   1.
 NSaved= 1 IEnMin= 1 EnMin= -969.905635159921     IErMin= 1 ErrMin= 2.56D-09
 ErrMax= 2.56D-09  0.00D+00 EMaxC= 1.00D-01 BMatC= 9.82D-15 BMatP= 9.82D-15
 IDIUse=1 WtCom= 1.00D+00 WtEn= 0.00D+00
 Coeff-Com:  0.100D+01
 Coeff:      0.100D+01
 Gap=     0.160 Goal=   None    Shift=    0.000
 RMSDP=8.23D-09 MaxDP=9.62D-07              OVMax= 4.23D-08

 SCF Done:  E(RM06) =  -969.905635160     A.U. after    1 cycles
            NFock=  1  Conv=0.82D-08     -V/T= 2.0976
 KE= 8.836378082756D+02 PE=-5.956017198554D+03 EE= 2.228515785812D+03
 Leave Link  502 at Thu Jun  2 15:01:58 2016, MaxMem=   268435456 cpu:       454.6
 (Enter /afs/crc.nd.edu/x86_64_linux/gaussian/09D01/pgi12.8/g09/l801.exe)
 DoSCS=F DFT=T ScalE2(SS,OS)=  1.000000  1.000000
 Range of M.O.s used for correlation:     1   419
 NBasis=   420 NAE=    80 NBE=    80 NFC=     0 NFV=     0
 NROrb=    419 NOA=    80 NOB=    80 NVA=   339 NVB=   339

 **** Warning!!: The largest alpha MO coefficient is  0.10939305D+03

 Leave Link  801 at Thu Jun  2 15:01:58 2016, MaxMem=   268435456 cpu:         0.2
 (Enter /afs/crc.nd.edu/x86_64_linux/gaussian/09D01/pgi12.8/g09/l1101.exe)
 Using compressed storage, NAtomX=    40.
 Will process     41 centers per pass.
   1 Symmetry operations used in ECPInt.
 ECPInt:  NShTT=   10731 NPrTT=   56041 LenC2=    9833 LenP2D=   32304.
 LDataN:  DoStor=T MaxTD1= 6 Len=  172
 Number of processors reduced to   4 by ecpmxn.
 R6Disp: Adding Grimme-D3 dispersion energy 1st derivatives to the gradient.
 Leave Link 1101 at Thu Jun  2 15:02:10 2016, MaxMem=   268435456 cpu:        76.9
 (Enter /afs/crc.nd.edu/x86_64_linux/gaussian/09D01/pgi12.8/g09/l1102.exe)
 Symmetrizing basis deriv contribution to polar:
 IMax=3 JMax=2 DiffMx= 0.00D+00
 Leave Link 1102 at Thu Jun  2 15:02:10 2016, MaxMem=   268435456 cpu:         0.6
 (Enter /afs/crc.nd.edu/x86_64_linux/gaussian/09D01/pgi12.8/g09/l1110.exe)
 Forming Gx(P) for the SCF density, NAtomX=    40.
 Integral derivatives from FoFJK, PRISM(SPDF).
 Do as many integral derivatives as possible in FoFJK.
 G2DrvN: MDV=     268435032.
 G2DrvN: will do    41 centers at a time, making    1 passes.
 Calling FoFCou, ICntrl=  3107 FMM=F I1Cent=   0 AccDes= 0.00D+00.
 FoFJK:  IHMeth= 1 ICntrl=    3107 DoSepK=F KAlg= 0 I1Cent=   0 FoldK=F
 IRaf=         0 NMat=   1 IRICut=       1 DoRegI=T DoRafI=F ISym2E= 0.
 FoFCou: FMM=F IPFlag=           0 FMFlag=      100000 FMFlg1=           0
         NFxFlg=           0 DoJE=F BraDBF=F KetDBF=F FulRan=T
         wScrn=  0.000000 ICntrl=    3107 IOpCl=  0 I1Cent=           0 NGrid=           0
         NMat0=    1 NMatS0=      1 NMatT0=    0 NMatD0=    1 NMtDS0=    0 NMtDT0=    0
 Symmetry not used in FoFCou.
 Defaulting to unpruned grid for atomic number  46.
 Defaulting to unpruned grid for atomic number  46.
 Defaulting to unpruned grid for atomic number  46.
 Defaulting to unpruned grid for atomic number  46.
 Defaulting to unpruned grid for atomic number  46.
 Defaulting to unpruned grid for atomic number  46.
 Defaulting to unpruned grid for atomic number  46.
 Defaulting to unpruned grid for atomic number  46.
 End of G2Drv F.D. properties file   721 does not exist.
 End of G2Drv F.D. properties file   722 does not exist.
 End of G2Drv F.D. properties file   788 does not exist.
 Leave Link 1110 at Thu Jun  2 15:47:49 2016, MaxMem=   268435456 cpu:     21891.1
 (Enter /afs/crc.nd.edu/x86_64_linux/gaussian/09D01/pgi12.8/g09/l1002.exe)
 Minotr:  Closed shell wavefunction.
          IDoAtm=1111111111111111111111111111111111111111
          Direct CPHF calculation.
          Differentiating once with respect to electric field.
                with respect to dipole field.
          Differentiating once with respect to nuclear coordinates.
          Requested convergence is 1.0D-08 RMS, and 1.0D-07 maximum.
          Secondary convergence is 1.0D-12 RMS, and 1.0D-12 maximum.
          NewPWx=T KeepS1=F KeepF1=F KeepIn=T MapXYZ=F SortEE=F KeepMc=T.
          MDV=     268434633 using IRadAn=       1.
 Defaulting to unpruned grid for atomic number  46.
 Generate precomputed XC quadrature information.
          Solving linear equations simultaneously, MaxMat=       0.
 FoFJK:  IHMeth= 1 ICntrl=       0 DoSepK=F KAlg= 0 I1Cent=   0 FoldK=F
 IRaf= 840000000 NMat= 123 IRICut=     307 DoRegI=T DoRafI=T ISym2E= 2.
 FoFCou: FMM=F IPFlag=           0 FMFlag=      100000 FMFlg1=           0
         NFxFlg=           0 DoJE=F BraDBF=F KetDBF=F FulRan=T
         wScrn=  0.000000 ICntrl=       0 IOpCl=  0 I1Cent=           0 NGrid=           0
         NMat0=  123 NMatS0=    123 NMatT0=    0 NMatD0=  123 NMtDS0=    0 NMtDT0=    0
 Integrals replicated using symmetry in FoFCou.
 Defaulting to unpruned grid for atomic number  46.
 Defaulting to unpruned grid for atomic number  46.
 Defaulting to unpruned grid for atomic number  46.
 Defaulting to unpruned grid for atomic number  46.
 Defaulting to unpruned grid for atomic number  46.
 Defaulting to unpruned grid for atomic number  46.
 Defaulting to unpruned grid for atomic number  46.
 Defaulting to unpruned grid for atomic number  46.
          There are   123 degrees of freedom in the 1st order CPHF.  IDoFFX=6 NUNeed=     3.
    120 vectors produced by pass  0 Test12= 2.71D-14 1.00D-09 XBig12= 3.04D+02 7.31D+00.
 AX will form   120 AO Fock derivatives at one time.
    120 vectors produced by pass  1 Test12= 2.71D-14 1.00D-09 XBig12= 6.92D+01 1.57D+00.
    120 vectors produced by pass  2 Test12= 2.71D-14 1.00D-09 XBig12= 2.10D+00 1.20D-01.
    120 vectors produced by pass  3 Test12= 2.71D-14 1.00D-09 XBig12= 1.51D-02 8.73D-03.
    120 vectors produced by pass  4 Test12= 2.71D-14 1.00D-09 XBig12= 6.58D-05 7.74D-04.
    120 vectors produced by pass  5 Test12= 2.71D-14 1.00D-09 XBig12= 2.15D-07 3.01D-05.
     70 vectors produced by pass  6 Test12= 2.71D-14 1.00D-09 XBig12= 4.58D-10 1.52D-06.
      3 vectors produced by pass  7 Test12= 2.71D-14 1.00D-09 XBig12= 7.49D-13 5.78D-08.
      3 vectors produced by pass  8 Test12= 2.71D-14 1.00D-09 XBig12= 8.56D-15 6.38D-09.
      3 vectors produced by pass  9 Test12= 2.71D-14 1.00D-09 XBig12= 8.71D-15 9.02D-09.
      3 vectors produced by pass 10 Test12= 2.71D-14 1.00D-09 XBig12= 3.29D-15 5.33D-09.
      3 vectors produced by pass 11 Test12= 2.71D-14 1.00D-09 XBig12= 1.20D-14 1.12D-08.
      3 vectors produced by pass 12 Test12= 2.71D-14 1.00D-09 XBig12= 8.77D-15 7.25D-09.
      3 vectors produced by pass 13 Test12= 2.71D-14 1.00D-09 XBig12= 1.27D-14 1.12D-08.
      3 vectors produced by pass 14 Test12= 2.71D-14 1.00D-09 XBig12= 3.40D-14 1.58D-08.
      3 vectors produced by pass 15 Test12= 2.71D-14 1.00D-09 XBig12= 4.38D-15 6.03D-09.
      3 vectors produced by pass 16 Test12= 2.71D-14 1.00D-09 XBig12= 1.26D-14 1.05D-08.
      3 vectors produced by pass 17 Test12= 2.71D-14 1.00D-09 XBig12= 4.20D-15 4.49D-09.
      3 vectors produced by pass 18 Test12= 2.71D-14 1.00D-09 XBig12= 1.08D-14 9.95D-09.
      3 vectors produced by pass 19 Test12= 2.71D-14 1.00D-09 XBig12= 1.55D-14 1.06D-08.
      3 vectors produced by pass 20 Test12= 2.71D-14 1.00D-09 XBig12= 6.14D-15 5.48D-09.
      3 vectors produced by pass 21 Test12= 2.71D-14 1.00D-09 XBig12= 1.14D-14 7.29D-09.
      3 vectors produced by pass 22 Test12= 2.71D-14 1.00D-09 XBig12= 3.48D-15 4.46D-09.
      3 vectors produced by pass 23 Test12= 2.71D-14 1.00D-09 XBig12= 4.94D-15 6.58D-09.
      3 vectors produced by pass 24 Test12= 2.71D-14 1.00D-09 XBig12= 5.00D-15 4.17D-09.
      3 vectors produced by pass 25 Test12= 2.71D-14 1.00D-09 XBig12= 9.81D-15 6.76D-09.
      3 vectors produced by pass 26 Test12= 2.71D-14 1.00D-09 XBig12= 5.62D-15 5.15D-09.
      3 vectors produced by pass 27 Test12= 2.71D-14 1.00D-09 XBig12= 1.40D-14 7.17D-09.
      3 vectors produced by pass 28 Test12= 2.71D-14 1.00D-09 XBig12= 7.45D-15 6.43D-09.
      3 vectors produced by pass 29 Test12= 2.71D-14 1.00D-09 XBig12= 1.29D-14 9.26D-09.
      3 vectors produced by pass 30 Test12= 2.71D-14 1.00D-09 XBig12= 4.31D-14 1.54D-08.
      2 vectors produced by pass 31 Test12= 2.71D-14 1.00D-09 XBig12= 1.97D-15 3.12D-09.
 InvSVY:  IOpt=1 It=  1 EMax= 3.55D-15
 Solved reduced A of dimension   864 with   123 vectors.
 FullF1:  Do perturbations    1 to     3.
 Isotropic polarizability for W=    0.000000      240.31 Bohr**3.
 End of Minotr F.D. properties file   721 does not exist.
 End of Minotr F.D. properties file   722 does not exist.
 End of Minotr F.D. properties file   788 does not exist.
 Leave Link 1002 at Thu Jun  2 17:18:59 2016, MaxMem=   268435456 cpu:     43727.1
 (Enter /afs/crc.nd.edu/x86_64_linux/gaussian/09D01/pgi12.8/g09/l601.exe)
 Copying SCF densities to generalized density rwf, IOpCl= 0 IROHF=0.

 **********************************************************************

            Population analysis using the SCF density.

 **********************************************************************

 Orbital symmetries:
       Occupied  (A) (A) (A) (A) (A) (A) (A) (A) (A) (A) (A) (A)
                 (A) (A) (A) (A) (A) (A) (A) (A) (A) (A) (A) (A)
                 (A) (A) (A) (A) (A) (A) (A) (A) (A) (A) (A) (A)
                 (A) (A) (A) (A) (A) (A) (A) (A) (A) (A) (A) (A)
                 (A) (A) (A) (A) (A) (A) (A) (A) (A) (A) (A) (A)
                 (A) (A) (A) (A) (A) (A) (A) (A) (A) (A) (A) (A)
                 (A) (A) (A) (A) (A) (A) (A) (A)
       Virtual   (A) (A) (A) (A) (A) (A) (A) (A) (A) (A) (A) (A)
                 (A) (A) (A) (A) (A) (A) (A) (A) (A) (A) (A) (A)
                 (A) (A) (A) (A) (A) (A) (A) (A) (A) (A) (A) (A)
                 (A) (A) (A) (A) (A) (A) (A) (A) (A) (A) (A) (A)
                 (A) (A) (A) (A) (A) (A) (A) (A) (A) (A) (A) (A)
                 (A) (A) (A) (A) (A) (A) (A) (A) (A) (A) (A) (A)
                 (A) (A) (A) (A) (A) (A) (A) (A) (A) (A) (A) (A)
                 (A) (A) (A) (A) (A) (A) (A) (A) (A) (A) (A) (A)
                 (A) (A) (A) (A) (A) (A) (A) (A) (A) (A) (A) (A)
                 (A) (A) (A) (A) (A) (A) (A) (A) (A) (A) (A) (A)
                 (A) (A) (A) (A) (A) (A) (A) (A) (A) (A) (A) (A)
                 (A) (A) (A) (A) (A) (A) (A) (A) (A) (A) (A) (A)
                 (A) (A) (A) (A) (A) (A) (A) (A) (A) (A) (A) (A)
                 (A) (A) (A) (A) (A) (A) (A) (A) (A) (A) (A) (A)
                 (A) (A) (A) (A) (A) (A) (A) (A) (A) (A) (A) (A)
                 (A) (A) (A) (A) (A) (A) (A) (A) (A) (A) (A) (A)
                 (A) (A) (A) (A) (A) (A) (A) (A) (A) (A) (A) (A)
                 (A) (A) (A) (A) (A) (A) (A) (A) (A) (A) (A) (A)
                 (A) (A) (A) (A) (A) (A) (A) (A) (A) (A) (A) (A)
                 (A) (A) (A) (A) (A) (A) (A) (A) (A) (A) (A) (A)
                 (A) (A) (A) (A) (A) (A) (A) (A) (A) (A) (A) (A)
                 (A) (A) (A) (A) (A) (A) (A) (A) (A) (A) (A) (A)
                 (A) (A) (A) (A) (A) (A) (A) (A) (A) (A) (A) (A)
                 (A) (A) (A) (A) (A) (A) (A) (A) (A) (A) (A) (A)
                 (A) (A) (A) (A) (A) (A) (A) (A) (A) (A) (A) (A)
                 (A) (A) (A) (A) (A) (A) (A) (A) (A) (A) (A) (A)
                 (A) (A) (A) (A) (A) (A) (A) (A) (A) (A) (A) (A)
                 (A) (A) (A) (A) (A) (A) (A) (A) (A) (A) (A) (A)
                 (A) (A) (A)
 The electronic state is 1-A.
 Alpha  occ. eigenvalues --  -19.42120 -14.58027 -14.56043 -10.50282 -10.44887
 Alpha  occ. eigenvalues --  -10.43894 -10.43270 -10.42462 -10.42083 -10.41015
 Alpha  occ. eigenvalues --  -10.40662 -10.40197 -10.40160 -10.39478 -10.37240
 Alpha  occ. eigenvalues --  -10.37236 -10.36858 -10.36850 -10.36552 -10.36074
 Alpha  occ. eigenvalues --   -3.47416  -2.21784  -2.21571  -2.18293  -1.27376
 Alpha  occ. eigenvalues --   -1.12180  -1.07595  -0.98510  -0.96175  -0.95900
 Alpha  occ. eigenvalues --   -0.92404  -0.90934  -0.87323  -0.86846  -0.84585
 Alpha  occ. eigenvalues --   -0.80680  -0.78821  -0.75057  -0.74666  -0.73000
 Alpha  occ. eigenvalues --   -0.72959  -0.71278  -0.69039  -0.65381  -0.64712
 Alpha  occ. eigenvalues --   -0.63664  -0.63580  -0.61819  -0.60917  -0.59875
 Alpha  occ. eigenvalues --   -0.58434  -0.57877  -0.57606  -0.57571  -0.57114
 Alpha  occ. eigenvalues --   -0.56351  -0.54727  -0.54445  -0.53888  -0.53465
 Alpha  occ. eigenvalues --   -0.52559  -0.52110  -0.51560  -0.50692  -0.50372
 Alpha  occ. eigenvalues --   -0.49700  -0.48372  -0.48151  -0.46882  -0.45608
 Alpha  occ. eigenvalues --   -0.45121  -0.43186  -0.42801  -0.41895  -0.41685
 Alpha  occ. eigenvalues --   -0.39990  -0.38921  -0.38260  -0.37549  -0.35621
 Alpha virt. eigenvalues --   -0.19603  -0.17309  -0.15959  -0.15081  -0.12959
 Alpha virt. eigenvalues --   -0.12282  -0.11963  -0.11786  -0.11269  -0.10168
 Alpha virt. eigenvalues --   -0.09934  -0.09593  -0.09144  -0.08942  -0.08760
 Alpha virt. eigenvalues --   -0.08432  -0.08220  -0.07783  -0.07468  -0.07089
 Alpha virt. eigenvalues --   -0.06938  -0.06345  -0.06077  -0.05690  -0.05506
 Alpha virt. eigenvalues --   -0.04732  -0.04492  -0.04062  -0.03758  -0.03053
 Alpha virt. eigenvalues --   -0.02936  -0.02445  -0.02356  -0.01997  -0.01917
 Alpha virt. eigenvalues --   -0.01411  -0.00975  -0.00852  -0.00372  -0.00144
 Alpha virt. eigenvalues --    0.00392   0.00834   0.01053   0.01312   0.01561
 Alpha virt. eigenvalues --    0.01973   0.02185   0.02515   0.02937   0.03446
 Alpha virt. eigenvalues --    0.03461   0.03649   0.03823   0.04393   0.04564
 Alpha virt. eigenvalues --    0.04789   0.05140   0.05583   0.05894   0.06278
 Alpha virt. eigenvalues --    0.06586   0.06746   0.07218   0.07506   0.07750
 Alpha virt. eigenvalues --    0.07920   0.08502   0.08608   0.09033   0.09328
 Alpha virt. eigenvalues --    0.09674   0.09803   0.10313   0.10757   0.10945
 Alpha virt. eigenvalues --    0.11412   0.11765   0.12151   0.12249   0.12433
 Alpha virt. eigenvalues --    0.12639   0.12901   0.13172   0.13249   0.14139
 Alpha virt. eigenvalues --    0.14395   0.14535   0.14729   0.14940   0.15197
 Alpha virt. eigenvalues --    0.15731   0.16009   0.16239   0.16913   0.17123
 Alpha virt. eigenvalues --    0.17253   0.17848   0.18091   0.18483   0.19144
 Alpha virt. eigenvalues --    0.19732   0.19868   0.20148   0.20599   0.20897
 Alpha virt. eigenvalues --    0.21243   0.21772   0.21889   0.22313   0.22487
 Alpha virt. eigenvalues --    0.22918   0.23002   0.24010   0.24229   0.24757
 Alpha virt. eigenvalues --    0.25330   0.25800   0.26732   0.27166   0.28120
 Alpha virt. eigenvalues --    0.29682   0.30199   0.31604   0.31671   0.33984
 Alpha virt. eigenvalues --    0.35391   0.35641   0.37150   0.40714   0.43471
 Alpha virt. eigenvalues --    0.44611   0.45618   0.47228   0.47901   0.49635
 Alpha virt. eigenvalues --    0.50177   0.52668   0.53204   0.54516   0.54898
 Alpha virt. eigenvalues --    0.56224   0.56792   0.57023   0.58148   0.58618
 Alpha virt. eigenvalues --    0.58764   0.59353   0.59407   0.59824   0.60868
 Alpha virt. eigenvalues --    0.61143   0.61186   0.63032   0.63387   0.63684
 Alpha virt. eigenvalues --    0.64540   0.64710   0.65176   0.65968   0.66396
 Alpha virt. eigenvalues --    0.67012   0.67244   0.69005   0.69186   0.70313
 Alpha virt. eigenvalues --    0.70367   0.71313   0.72917   0.73373   0.74190
 Alpha virt. eigenvalues --    0.75384   0.75538   0.76673   0.77205   0.77881
 Alpha virt. eigenvalues --    0.78463   0.79130   0.79397   0.80164   0.80732
 Alpha virt. eigenvalues --    0.81522   0.81984   0.82978   0.84590   0.85194
 Alpha virt. eigenvalues --    0.86732   0.87098   0.88557   0.88901   0.89530
 Alpha virt. eigenvalues --    0.89715   0.91036   0.91818   0.93344   0.93511
 Alpha virt. eigenvalues --    0.94611   0.96753   0.97521   0.98563   0.99481
 Alpha virt. eigenvalues --    0.99950   1.00645   1.01551   1.03469   1.03814
 Alpha virt. eigenvalues --    1.04436   1.05159   1.06583   1.06810   1.08023
 Alpha virt. eigenvalues --    1.09043   1.10429   1.10674   1.12518   1.13019
 Alpha virt. eigenvalues --    1.13392   1.14765   1.16023   1.16527   1.17071
 Alpha virt. eigenvalues --    1.19449   1.19987   1.22009   1.24197   1.25099
 Alpha virt. eigenvalues --    1.27957   1.28845   1.29519   1.30804   1.31135
 Alpha virt. eigenvalues --    1.31485   1.32912   1.34306   1.35045   1.36075
 Alpha virt. eigenvalues --    1.37127   1.37669   1.38343   1.40407   1.40576
 Alpha virt. eigenvalues --    1.43079   1.43185   1.44529   1.47209   1.49091
 Alpha virt. eigenvalues --    1.51272   1.54532   1.54939   1.56304   1.59358
 Alpha virt. eigenvalues --    1.61079   1.64507   1.66283   1.67299   1.68729
 Alpha virt. eigenvalues --    1.69609   1.70403   1.71794   1.72054   1.72860
 Alpha virt. eigenvalues --    1.74866   1.75867   1.76684   1.77838   1.79672
 Alpha virt. eigenvalues --    1.80061   1.81607   1.82310   1.82587   1.82989
 Alpha virt. eigenvalues --    1.84555   1.84995   1.87045   1.89194   1.91443
 Alpha virt. eigenvalues --    1.91890   1.94733   1.96168   1.97149   1.98144
 Alpha virt. eigenvalues --    1.99633   2.01255   2.01372   2.01662   2.02638
 Alpha virt. eigenvalues --    2.04035   2.05018   2.05753   2.06226   2.07288
 Alpha virt. eigenvalues --    2.08788   2.09628   2.11058   2.11453   2.13386
 Alpha virt. eigenvalues --    2.15375   2.15749   2.17386   2.17680   2.18276
 Alpha virt. eigenvalues --    2.21620   2.22833   2.23787   2.27107   2.31186
 Alpha virt. eigenvalues --    2.34449   2.38532   2.39350   2.42049   2.42544
 Alpha virt. eigenvalues --    2.44498   2.45194   2.46134   2.47446   2.50995
 Alpha virt. eigenvalues --    2.51299   2.54471   2.55080   2.55458   2.57299
 Alpha virt. eigenvalues --    2.57664   2.59124   2.60049   2.65246   2.65786
 Alpha virt. eigenvalues --    2.67811   2.69524   2.71515   2.72534   2.73287
 Alpha virt. eigenvalues --    2.77207   2.83528   2.90597   2.92267   2.98552
 Alpha virt. eigenvalues --    3.15195   3.22657   3.28214  15.69219
          Condensed to atoms (all electrons):
               1          2          3          4          5          6
     1  Pd  18.886126  -0.724278   1.446060  -1.841165   0.364893  -0.113553
     2  C   -0.724278   6.931011  -1.479757   0.930466  -0.085239   0.157704
     3  C    1.446060  -1.479757   8.448852  -4.078874   0.139466  -0.106021
     4  C   -1.841165   0.930466  -4.078874  22.831054  -0.332336  -0.059685
     5  N    0.364893  -0.085239   0.139466  -0.332336   7.134657   0.141717
     6  C   -0.113553   0.157704  -0.106021  -0.059685   0.141717   8.062318
     7  C   -0.235013  -0.061500   0.030500  -0.256439  -0.028367  -0.088134
     8  N    0.290681  -0.023307   0.133359  -0.884967  -0.035345   0.097288
     9  C   -0.199000   0.081765  -0.253671   1.199896  -0.276859   0.951733
    10  H   -0.035022   0.005271  -0.006354   0.081603  -0.000568   0.004652
    11  O    0.018367  -0.002856   0.002110  -0.000909  -0.121001   0.319640
    12  C    0.043019  -0.029443   0.133415  -2.094724   0.010398  -0.019909
    13  C   -0.310394   0.174177  -0.111759   0.139302   0.017358   0.005728
    14  C    0.714088  -0.383321   1.058648  -5.875544   0.081979  -0.003901
    15  C    0.517952  -0.133667   0.651014  -5.283165   0.070805   0.125980
    16  C   -0.292594   0.163238  -0.092103   0.079787   0.018245   0.004384
    17  H    0.001770  -0.000285   0.000912  -0.029748   0.000003   0.000017
    18  H   -0.001683   0.001206  -0.006413   0.030537  -0.000029   0.000015
    19  H   -0.016783   0.008520  -0.024222   0.278316  -0.000209  -0.001386
    20  H   -0.018846   0.002986  -0.017762   0.262944   0.000329  -0.002121
    21  H   -0.001490   0.001335  -0.006835   0.019236  -0.000032   0.000073
    22  H   -0.033234   0.032933   0.306539   0.068345  -0.000985   0.001896
    23  H   -0.031937   0.022594   0.312049   0.085560  -0.001044   0.001886
    24  H   -0.019307   0.361785  -0.031747   0.004009  -0.003562  -0.004229
    25  H   -0.022385   0.362598  -0.032733  -0.002158  -0.003026  -0.000394
    26  C   -0.189312   0.014046  -0.030056   0.072680   0.047042  -2.780960
    27  C   -0.068024   0.024231  -0.030239   0.295220  -0.117108   0.827039
    28  C   -0.000658  -0.037712   0.020793   0.211123   0.192023  -1.377565
    29  C    0.007153   0.015645  -0.029106   0.021413  -0.079527   0.274077
    30  C   -0.108004   0.039154   0.004848  -0.089174  -0.054440  -0.270448
    31  H    0.001639   0.000091  -0.000039  -0.000310   0.001590   0.059743
    32  H    0.000822  -0.000007   0.000008   0.000263   0.000072  -0.007109
    33  H    0.001027   0.000038   0.000060   0.002601   0.000001   0.004777
    34  H   -0.001095  -0.000004   0.000093  -0.000085   0.007302   0.032769
    35  H    0.002634  -0.000732   0.000065  -0.000212   0.013769  -0.013323
    36  H    0.006708   0.000161   0.005417  -0.003147  -0.001218  -0.019281
    37  C    0.052008  -0.056607   0.032325  -0.006351   0.007341  -0.195739
    38  H   -0.003617   0.002468   0.000633   0.000237   0.000947   0.019494
    39  H   -0.017204   0.006120  -0.001664   0.000090  -0.002114   0.028418
    40  H    0.017038  -0.002488   0.001435  -0.001222   0.019263  -0.029237
               7          8          9         10         11         12
     1  Pd  -0.235013   0.290681  -0.199000  -0.035022   0.018367   0.043019
     2  C   -0.061500  -0.023307   0.081765   0.005271  -0.002856  -0.029443
     3  C    0.030500   0.133359  -0.253671  -0.006354   0.002110   0.133415
     4  C   -0.256439  -0.884967   1.199896   0.081603  -0.000909  -2.094724
     5  N   -0.028367  -0.035345  -0.276859  -0.000568  -0.121001   0.010398
     6  C   -0.088134   0.097288   0.951733   0.004652   0.319640  -0.019909
     7  C   10.257954   0.217610  -1.854438   0.040165  -0.193460  -0.000130
     8  N    0.217610   6.648552   0.211796  -0.057835   0.031117   0.051455
     9  C   -1.854438   0.211796  15.017448   0.186594   0.015130   0.045053
    10  H    0.040165  -0.057835   0.186594   0.489912   0.000012  -0.017839
    11  O   -0.193460   0.031117   0.015130   0.000012   8.328271   0.000074
    12  C   -0.000130   0.051455   0.045053  -0.017839   0.000074   6.609768
    13  C    0.013904  -0.004958  -0.197199   0.071470  -0.000122   0.137418
    14  C    0.153700   0.307552  -0.266124  -0.088455  -0.000031   0.505569
    15  C    0.000468   0.297633   0.014150  -0.079612   0.000844   0.520768
    16  C    0.013249  -0.011484  -0.212586   0.072785  -0.000047   0.113452
    17  H    0.000974   0.000915   0.002425  -0.000022   0.000000   0.235127
    18  H   -0.000459  -0.000709   0.002683   0.000019   0.000000   0.040481
    19  H   -0.004704  -0.007257   0.017322   0.000035  -0.000001  -0.024255
    20  H   -0.003188  -0.007823   0.015532   0.000052   0.000000  -0.023607
    21  H   -0.000362  -0.000585   0.003650   0.000028   0.000000   0.044374
    22  H   -0.001686  -0.000915   0.001244   0.000004  -0.000001  -0.004684
    23  H   -0.001692  -0.001000   0.001523   0.000004  -0.000001  -0.005302
    24  H    0.004112  -0.001682   0.001444   0.000000  -0.000018  -0.000009
    25  H    0.002281  -0.001590   0.001515   0.000000  -0.000008   0.000056
    26  C   -2.229607  -0.117810  -2.535367  -0.032835  -0.032840   0.028143
    27  C   -0.675539  -0.118269   1.858855   0.037489   0.053712  -0.060517
    28  C    0.675513  -0.211066  -7.885909   0.100058  -0.017454  -0.014284
    29  C    0.038307   0.018155   0.046040  -0.000008   0.086411  -0.000215
    30  C    0.033697  -0.035259  -0.075558  -0.000288  -0.128429  -0.000425
    31  H    0.034586   0.001095  -0.000109   0.000016   0.003648   0.000002
    32  H   -0.015192   0.003868   0.027922  -0.000123   0.000059   0.000004
    33  H    0.039282  -0.000028   0.090674  -0.003088   0.000002   0.000142
    34  H    0.002030  -0.000094  -0.000337   0.000000  -0.045078   0.000000
    35  H   -0.005951  -0.000188  -0.000574   0.000000  -0.043744   0.000000
    36  H    0.005882  -0.001003  -0.000739   0.000000   0.010712   0.000010
    37  C    0.012158  -0.001661   0.000616  -0.000008   0.026640   0.000178
    38  H    0.000480  -0.000004   0.000009   0.000000  -0.001594   0.000000
    39  H   -0.003999   0.000537   0.000486   0.000000  -0.001277   0.000008
    40  H   -0.003560  -0.000305  -0.000880   0.000000   0.004890   0.000003
[...]
 1594,-0.00000426,-0.00000897,0.00000312,0.00000902,0.00102867,-0.00118
 275,0.00057454,-0.00064651,0.00071840,0.00018841,-0.00671369,0.1890169
 5,-0.00006690,-0.00024381,-0.00001447,0.00027296,-0.00007638,-0.000098
 27,-0.00008082,-0.00008990,0.00004815,-0.00008968,0.00000358,-0.000033
 75,-0.00038975,0.00131773,0.00410055,-0.00101311,0.00154169,-0.0002327
 4,-0.00004768,0.00006250,-0.00017920,0.00000069,0.00005122,0.00000355,
 -0.00001104,-0.00005192,-0.00000340,0.00000443,-0.00000809,-0.00000032
 ,0.00046570,0.00358693,0.00028089,0.00000998,0.00000317,0.00000025,0.0
 0000006,0.00000365,-0.00000057,0.00002104,0.00001666,0.00001975,0.0000
 1045,0.00002150,-0.00001421,-0.00000187,0.00000350,0.00000052,0.000001
 59,-0.00000017,0.00000037,0.00000441,0.00000158,-0.00000010,0.00000212
 ,-0.00000594,0.00000373,0.00000371,-0.00000869,-0.00000287,0.00000500,
 0.00000064,0.00000127,0.00003734,0.00001850,0.00000323,0.00001168,0.00
 001259,-0.00000460,-0.00025629,0.00015337,0.00016559,-0.00013462,0.000
 05369,-0.00012744,-0.00000390,0.00005655,0.00001137,0.00000606,0.00002
 577,0.00004940,-0.00002362,0.00002183,-0.00000376,-0.00071971,0.005425
 63,0.00538796,0.00850449,-0.13396505,-0.18588498,0.00000611,-0.0000099
 8,-0.00002843,0.00000096,0.00000303,-0.00000341,0.00000235,0.00000262,
 -0.00000717,-0.00061739,0.00013379,0.00017695,0.00033369,0.00024147,0.
 00098905,-0.00833748,0.13791882,0.20051577,0.00067522,-0.00051451,0.00
 037061,0.00017209,-0.00047512,0.00019015,-0.00000274,0.00006284,-0.000
 12685,-0.00006550,-0.00014918,-0.00007859,-0.00884348,-0.02578456,0.03
 015096,-0.00957080,0.00319598,0.00244145,0.00090068,-0.00008754,-0.002
 22496,0.00011561,0.00025457,0.00003847,-0.00005775,-0.00052890,-0.0000
 1583,0.00000192,-0.00004458,-0.00000130,0.00544076,0.00337630,-0.00004
 410,0.00001321,0.00001530,0.00000289,0.00000502,0.00003977,-0.00000377
 ,0.00000028,0.00004906,-0.00000606,-0.00003783,-0.00000142,0.00002100,
 -0.00000485,0.00004132,-0.00000190,0.00000947,-0.00000804,-0.00000066,
 0.00000865,-0.00000370,-0.00000397,0.00001188,-0.00002670,0.00000357,0
 .00000308,-0.00003155,-0.00001180,0.00000532,-0.00000616,0.00000203,-0
 .00002415,0.00001582,0.00003102,0.00003327,0.00001692,-0.00002658,-0.0
 0006434,0.00012120,0.00006150,-0.00060775,0.00017666,0.00005059,-0.000
 49544,-0.00021024,-0.00003363,0.00017284,0.00011197,0.00022630,-0.0003
 4519,0.00017843,-0.00003399,0.00042759,0.00743230,-0.02355812,-0.07638
 967,0.00099618,0.00990416,-0.00002067,0.00000362,-0.00007007,-0.000025
 30,-0.00003127,-0.00001756,-0.00000256,0.00001554,-0.00000076,0.001507
 56,0.00029675,-0.00081459,-0.00254657,0.00401338,-0.00127898,0.0013362
 7,-0.00028605,0.00180472,0.58036142,0.00004179,0.00029891,-0.00023426,
 -0.00011625,0.00044555,-0.00027563,0.00010294,-0.00010575,0.00020086,0
 .00011854,-0.00002442,0.00007763,-0.01287318,-0.01708097,0.02016190,-0
 .00225630,0.00092800,0.00200929,0.00004345,-0.00042793,-0.00149306,0.0
 0018125,-0.00001857,-0.00002904,-0.00002983,-0.00011784,0.00004833,-0.
 00000717,0.00000652,0.00000557,0.00010634,-0.00097651,-0.00020832,-0.0
 0001961,-0.00001005,0.00000027,0.00000479,-0.00000783,0.00000655,-0.00
 008576,-0.00001907,-0.00004900,-0.00003024,-0.00001576,0.00001779,0.00
 000595,-0.00000120,0.00000867,-0.00000364,-0.00000335,0.00000072,-0.00
 000860,-0.00000981,0.00000078,0.00000435,0.00000196,-0.00000973,0.0000
 1623,0.00001220,0.00001440,-0.00000916,-0.00000391,-0.00000350,0.00003
 858,0.00000742,-0.00001131,-0.00004781,-0.00004712,0.00000279,-0.00014
 797,0.00000665,0.00008559,0.00034784,-0.00034833,-0.00004149,-0.000131
 89,-0.00002486,-0.00004056,-0.00000343,-0.00003038,0.00018617,-0.00003
 493,0.00004157,-0.00002429,0.00136100,-0.01050533,0.02233958,0.0018387
 5,-0.09700556,0.04062249,0.00000475,0.00000997,-0.00004834,-0.00000982
 ,-0.00001321,-0.00000655,-0.00000219,-0.00000177,-0.00000903,-0.001443
 61,0.00150812,0.00079419,0.00162720,-0.00201671,0.00078811,0.00306705,
 0.01139680,-0.01926474,-0.00521009,0.56456793,0.00020027,-0.00042542,0
 .00024137,0.00034359,-0.00039110,0.00028315,-0.00002700,0.00002779,-0.
 00017603,-0.00008606,-0.00002444,-0.00006043,0.00833357,0.00542737,0.0
 0039130,-0.00281627,-0.00202140,0.00085361,0.00070677,0.00075329,-0.00
 020711,-0.00027088,0.00005753,-0.00003867,-0.00001330,-0.00020237,0.00
 001054,-0.00000288,-0.00002159,-0.00000278,0.00088876,-0.00027613,-0.0
 0126967,0.00000909,0.00001041,-0.00000056,-0.00000057,0.00001889,0.000
 00707,0.00000589,0.00001521,-0.00000909,-0.00002591,-0.00000128,0.0000
 1819,-0.00000063,0.00000657,-0.00001046,0.00000434,-0.00000295,-0.0000
 0023,0.00000312,-0.00000202,-0.00000233,0.00000375,-0.00001447,0.00000
 665,-0.00000364,0.00000031,-0.00000775,-0.00000026,-0.00000166,0.00000
 179,-0.00001030,0.00000390,0.00001308,0.00003024,0.00003123,-0.0000029
 6,-0.00010810,0.00006718,-0.00000968,-0.00008412,0.00013045,-0.0002079
 0,-0.00021058,-0.00033267,-0.00001893,0.00013125,0.00009286,0.00008407
 ,-0.00022401,0.00004458,-0.00001872,-0.00432010,0.00749052,-0.00671122
 ,0.00968061,0.04520392,-0.18911871,-0.00001178,0.00002472,-0.00001016,
 -0.00000964,-0.00001481,-0.00000097,-0.00000333,0.00000974,-0.00000356
 ,0.00130209,-0.00079384,0.00108821,0.00063157,0.00017730,0.00071976,0.
 00288313,0.01167132,-0.02332601,0.01154584,0.03078975,0.50164379,0.000
 11916,0.00010464,-0.00007523,-0.00006016,0.00015032,-0.00011095,0.0000
 5566,-0.00003511,0.00008828,0.00006247,-0.00000300,0.00001547,0.000718
 61,-0.00124539,0.00081178,-0.00068995,0.00111847,0.00035196,-0.0000275
 3,-0.00001629,0.00012790,0.00003322,-0.00000001,0.00001360,0.00000322,
 -0.00005264,-0.00000053,-0.00000092,0.00000106,-0.00000115,0.00069630,
 -0.00019844,-0.00048128,-0.00000812,-0.00000541,-0.00000081,0.00000122
 ,0.00000285,0.00000491,-0.00004142,-0.00001560,-0.00002812,-0.00003317
 ,-0.00001126,0.00001600,0.00000101,0.00000566,0.00000104,-0.00000235,-
 0.00000286,0.00000013,-0.00000455,-0.00000608,0.00000080,0.00000603,0.
 00000083,-0.00000420,0.00001313,-0.00000149,0.00000571,-0.00000384,-0.
 00000526,-0.00000232,0.00000606,-0.00000521,-0.00000356,-0.00002407,-0
 .00002265,-0.00000186,-0.00002132,-0.00003607,0.00003295,0.00007243,-0
 .00020392,0.00001104,-0.00002262,0.00001294,-0.00003289,0.00000112,0.0
 0001545,0.00000433,-0.00002102,0.00001848,-0.00000409,0.00044369,0.000
 13020,0.00032828,-0.00258127,0.00025981,-0.00173136,-0.00000173,0.0000
 0852,0.00000113,-0.00000172,-0.00000323,0.00000236,-0.00000137,0.00000
 006,-0.00000147,0.00001927,-0.00014377,0.00012731,0.00005101,-0.000027
 60,0.00005909,0.00013297,-0.00001796,0.00033045,-0.23503321,-0.1249358
 5,0.00446483,0.25086109,0.00020426,-0.00016013,0.00009668,0.00012324,-
 0.00013634,0.00006688,-0.00001484,-0.00002108,-0.00006843,-0.00002784,
 -0.00000724,-0.00001810,-0.00013212,-0.00178182,0.00294600,-0.00164632
 ,0.00147688,0.00038358,0.00013349,0.00001736,-0.00024797,0.00003546,0.
 00002234,0.00001088,-0.00000610,-0.00010361,-0.00000496,-0.00000031,-0
 .00000841,0.00000064,0.00123898,0.00056373,-0.00008933,0.00000385,0.00
 000293,-0.00000031,0.00000103,0.00000783,0.00000198,-0.00000619,0.0000
 0384,-0.00000697,-0.00001534,-0.00000261,0.00001199,0.00000040,0.00000
 480,-0.00000317,0.00000108,-0.00000144,-0.00000018,0.00000072,-0.00000
 106,-0.00000051,0.00000352,-0.00000483,0.00000127,-0.00000032,-0.00000
 434,-0.00000230,0.,-0.00000175,0.00000029,-0.00000734,0.00000240,0.000
 00561,0.00001479,0.00001788,-0.00000214,0.00000417,0.00003298,-0.00002
 636,-0.00008676,0.00015454,0.00000379,-0.00009213,-0.00002409,-0.00003
 074,0.00002707,0.00002699,0.00003123,-0.00006566,0.00003292,-0.0000053
 5,-0.00122949,-0.00013652,-0.00032141,-0.00989754,-0.00771359,-0.00145
 078,-0.00000826,0.00000473,-0.00001167,-0.00000575,-0.00000639,-0.0000
 0038,-0.00000101,0.00000301,-0.00000067,0.00051642,-0.00049006,-0.0000
 0094,0.00019422,0.00008411,-0.00006200,0.00026805,0.00044264,-0.000174
 78,-0.12474155,-0.12845142,0.00281067,0.13621027,0.13535601,-0.0003178
 3,0.00018315,-0.00010158,-0.00007505,0.00008258,-0.00003931,0.00001884
 ,0.00004578,0.00005428,0.00005543,0.00000764,0.00000899,0.00059837,0.0
 0479123,-0.00547015,0.00289351,-0.00061485,-0.00030524,-0.00036726,0.0
 0006731,0.00060353,0.00000444,-0.00005966,0.00000646,0.00002886,0.0001
 6450,-0.00001289,0.00000220,0.00001307,0.00000077,-0.00163354,-0.00059
 334,-0.00013550,-0.00000373,-0.00000563,0.00000062,-0.00000301,-0.0000
 0943,-0.00000424,0.00001128,-0.00000524,0.00001507,0.00002158,0.000008
 08,-0.00002493,-0.00000035,-0.00000357,0.00000998,-0.00000277,0.000001
 08,0.00000071,-0.00000123,0.00000191,0.00000178,-0.00000327,0.00000708
 ,-0.00000262,0.00000803,-0.00000088,0.00000645,0.00000142,0.00000263,-
 0.00000099,0.00000790,-0.00000881,-0.00000860,-0.00000509,-0.00000798,
 0.00000448,0.00000193,-0.00001880,0.00001300,0.00006539,-0.00010470,-0
 .00002061,0.00017280,0.00010928,0.00001497,-0.00005909,-0.00002344,-0.
 00007504,0.00011375,-0.00005001,0.00000891,0.00089940,0.00008443,0.000
 51953,0.02493867,0.01548972,0.00082778,0.00000137,-0.00001066,0.000020
 95,0.00001010,0.00001182,0.00000381,0.00000204,-0.00000514,0.00000307,
 -0.00047503,-0.00010284,0.00028832,-0.00003284,-0.00016011,-0.00001553
 ,-0.00007560,-0.00105339,0.00134807,0.00306330,0.00230341,-0.04733893,
 -0.00520356,-0.00504601,0.04932537,-0.00015933,0.00003727,-0.00001794,
 -0.00059965,0.00004448,0.00040872,-0.00002816,-0.00001282,-0.00007782,
 -0.00008202,-0.00000288,0.00001922,0.00120973,0.00017037,-0.00008747,0
 .00029598,-0.00010687,0.00004081,-0.00003606,-0.00002946,0.00002563,0.
 00000629,-0.00002798,0.00001033,0.00001010,0.00005713,0.,0.00000143,0.
 00000553,-0.00000154,0.00027798,-0.00003481,-0.00023776,0.00000368,0.0
 0000326,0.00000310,-0.00000177,-0.00000953,-0.00000343,0.00003073,0.00
 000041,0.00001725,0.00004859,0.00001923,-0.00002181,0.00000104,-0.0000
 0898,0.00000533,-0.00000010,0.00000294,0.00000028,0.00000158,0.0000041
 8,0.00000024,-0.00000874,0.00000376,0.00000299,-0.00000493,0.00000436,
 -0.00000142,0.00000408,0.00000595,0.00000130,0.00000692,0.00001934,0.0
 0000102,0.00001706,-0.00000304,0.00001635,0.00016745,0.00004390,-0.000
 08822,-0.00125623,0.00068344,0.00061081,0.00004879,0.00004634,0.000006
 70,-0.00002867,-0.00002253,-0.00001031,0.00004267,-0.00002160,0.000004
 67,-0.00021702,-0.00081959,0.00088955,0.00299948,-0.00449773,0.0017111
 2,-0.00000293,-0.00001895,0.00000457,0.00000168,0.00000383,0.00000029,
 0.00000219,-0.00000035,-0.00000044,0.00039976,-0.00023744,0.00000262,0
 .00023733,-0.00003062,0.00001112,0.00014063,0.00026119,-0.00056464,-0.
 20950787,0.12674072,-0.04393049,-0.01767614,0.01672558,-0.00505016,0.2
 2452895,-0.00001441,-0.00037795,0.00027610,0.00023319,-0.00020831,-0.0
 0005998,-0.00008952,0.00004709,-0.00005403,-0.00008423,0.00002033,-0.0
 0004754,0.00002173,0.00139092,-0.00102872,0.00127732,-0.00066922,-0.00
 018691,0.00001581,0.00000722,0.00007831,-0.00004445,0.00002555,-0.0000
 2975,-0.00004121,-0.00000725,-0.00000980,-0.00000051,-0.00001175,-0.00
 000072,-0.00129275,0.00001974,-0.00015274,0.00001191,0.00001150,0.0000
 0047,-0.00000025,0.00000338,-0.00000353,0.00004621,0.00001734,0.000019
 64,-0.00000070,-0.00000484,0.00001144,-0.00000118,-0.00000719,-0.00001
 638,0.00000445,0.00000238,-0.00000111,0.00000638,0.00000536,-0.0000023
 5,-0.00000346,-0.00000473,0.00000645,-0.00002524,0.00000272,-0.0000105
 5,0.00000156,0.00000201,0.00000314,-0.00001836,0.00000352,0.00000790,0
 .00001550,0.00003675,-0.00000800,-0.00004711,0.00003402,-0.00002235,0.
 00033509,0.00047710,-0.00016417,0.00000416,-0.00000460,-0.00000601,0.0
 0000053,0.00000459,-0.00000236,-0.00000938,0.00000921,0.00000878,0.000
 09544,0.00097526,0.00316470,0.00975487,-0.00894391,0.00196544,0.000003
 86,0.00002735,-0.00000341,0.00000052,0.00000150,0.00000019,-0.00000247
 ,0.00000267,0.00000144,-0.00033106,0.00007090,0.00002453,0.00027788,-0
 .00077716,0.00019016,-0.00041712,0.00035149,-0.00010516,0.12607375,-0.
 14219282,0.03312758,-0.01430014,0.01174595,-0.00447789,-0.13797589,0.1
 4985940,-0.00017916,0.00022477,-0.00004608,-0.00013110,0.00024892,-0.0
 0030040,0.00011533,0.00006505,0.00016589,0.00014963,0.00000114,-0.0000
 0173,0.00010586,-0.00184786,0.00157058,-0.00109200,0.00042271,-0.00003
 969,-0.00000070,-0.00002173,-0.00009725,0.00008611,-0.00005851,-0.0000
 0492,0.00002986,-0.00003146,0.00000353,-0.00000255,0.00001031,0.000002
 59,0.00112657,0.00126775,0.00017505,-0.00001346,-0.00000730,-0.0000037
 8,0.00000432,0.00000539,-0.00000520,-0.00002186,-0.00002509,-0.0000216
 0,-0.00003915,-0.00003240,0.00003325,0.00000029,0.00000037,-0.00000516
 ,-0.00000170,-0.00000053,-0.00000106,-0.00000429,-0.00000210,0.0000002
 5,0.00000248,0.00000499,-0.00000719,-0.00000566,0.00000341,0.00000549,
 -0.00000814,-0.00000502,-0.00000173,-0.00002463,-0.00002014,-0.0000035
 4,-0.00005969,-0.00003571,-0.00000665,0.00007920,-0.00008991,-0.000137
 95,0.00105661,-0.00047430,0.00016724,0.00000434,-0.00000071,0.00000984
 ,0.00001145,0.00000270,0.00000549,-0.00001421,0.00000506,-0.00000125,0
 .00145149,0.00050020,-0.00507097,-0.02483524,0.01868132,-0.00556351,-0
 .00000179,-0.00002222,-0.00000803,0.00000155,-0.00000028,-0.00000082,0
 .00000159,-0.00000314,0.00000091,0.00014678,-0.00001119,-0.00004673,-0
 .00090331,0.00099693,-0.00019189,-0.00014094,-0.00069360,0.00104030,-0
 .04277321,0.03298462,-0.05838856,0.00092362,-0.00099386,-0.00070130,0.
 04666993,-0.03847657,0.06195077,-0.00009908,0.00005344,0.00002340,-0.0
 0011405,0.00010935,-0.00010038,-0.00000285,0.00002612,0.00006004,0.000
 00460,0.00003007,0.00000383,0.00016808,0.00154995,0.00016504,0.0009797
 8,-0.00070156,0.00013139,-0.00007010,-0.00003981,0.00000134,-0.0000071
 2,-0.00003661,-0.00003858,-0.00002129,0.00000746,0.00000198,-0.0000024
 6,0.00000409,0.00000163,-0.00075248,-0.00033563,0.00012954,-0.00000109
 ,0.00000171,-0.00000345,0.00000239,-0.00000178,-0.00000176,0.00000836,
 -0.00000815,-0.00000020,0.00000105,-0.00001620,0.00001676,-0.00000017,
 -0.00000982,-0.00001022,0.00000098,0.00000246,-0.00000063,0.00000042,0
 .00000178,-0.00000111,-0.00000200,0.00000313,-0.00000007,-0.00001884,0
 .00001372,-0.00000127,-0.00000404,0.00000017,0.00000080,-0.00000418,-0
 .00000179,-0.00000335,-0.00002385,-0.00001155,0.00000096,0.00003911,-0
 .00004096,-0.00002723,0.00015678,-0.00006180,0.00007372,0.00005555,0.0
 0000384,-0.00000094,-0.00001310,-0.00000835,0.00000171,0.00001081,-0.0
 0000451,0.00000823,0.00062915,-0.00017329,-0.00080784,-0.00182677,0.00
 183318,0.00294199,0.00000796,0.00000763,-0.00000044,0.00000342,0.00000
 307,0.00000009,-0.00000085,-0.00000081,0.00000075,-0.00030106,-0.00003
 645,-0.00014422,-0.00015968,-0.00005922,0.00013533,0.00078366,-0.00030
 743,0.00051852,-0.04755647,0.01175580,0.01099112,0.00295883,-0.0177217
 5,-0.01961121,-0.00087448,0.01651927,0.01828577,0.04604506,0.00009643,
 -0.00000060,-0.00005434,0.00006317,-0.00010660,0.00011290,-0.00003751,
 0.00000008,-0.00006880,-0.00006387,-0.00001787,-0.00000430,0.00087342,
 0.00185674,-0.00027791,-0.00009386,-0.00006789,-0.00027926,-0.00003552
 ,-0.00003000,0.00004300,-0.00001645,0.00002657,0.00002033,0.00000598,0
 .00004741,-0.00000524,0.00000402,-0.00000084,-0.00000229,0.00022730,0.
 00025795,0.00006851,0.00000665,0.00000255,0.00000122,-0.00000262,-0.00
 000283,-0.00000007,0.00001917,0.00001372,0.00002163,0.00003363,0.00002
 139,-0.00002816,-0.00000337,0.00000280,0.00000695,0.00000086,0.0000003
 8,0.00000066,0.00000250,0.00000250,0.00000091,-0.00000146,-0.00000149,
 0.00000387,0.00000480,-0.00000715,-0.00000299,0.00000717,0.00000329,0.
 00000098,0.00000265,0.00000269,0.00000130,0.00002351,0.00001135,0.0000
 0180,-0.00001330,-0.00000019,0.00003004,-0.00014517,0.00004184,-0.0000
 9304,0.00002788,0.00004296,0.00002458,-0.00001472,-0.00001286,-0.00002
 603,0.00002968,-0.00001691,0.00000869,-0.00021091,0.00094801,0.0000373
 2,-0.00169962,0.00964880,0.01282620,0.00000356,-0.00000954,0.00000213,
 0.00000206,0.00000357,-0.00000169,0.00000203,0.00000058,-0.00000289,0.
 00009809,0.00012738,-0.00055561,-0.00013473,0.00016580,-0.00008741,-0.
 00059973,-0.00064706,0.00332258,0.01165349,-0.17977112,-0.13346694,0.0
 0325569,-0.01094715,-0.01101234,-0.00102213,-0.01194550,-0.01257198,-0
 .01234876,0.19035723,0.00005970,0.00002228,-0.00006497,-0.00001725,0.0
 0000417,-0.00009272,0.00000241,-0.00002116,0.00005518,0.00002031,-0.00
 001386,0.00000124,-0.00139723,-0.00084804,0.00256744,0.00108494,0.0003
 9295,-0.00014262,-0.00005703,0.00007705,-0.00016360,0.00002392,0.00000
 876,0.00000985,-0.00001246,-0.00002244,-0.00000477,-0.00000055,-0.0000
 0354,0.00000101,-0.00057797,0.00075387,0.00005454,0.00000048,0.0000014
 6,0.00000122,-0.00000031,0.00000104,0.00000475,-0.00001329,-0.00000045
 ,-0.00001338,-0.00001188,-0.00000073,0.00000679,0.00000138,0.00000451,
 -0.00000160,0.00000046,-0.00000148,0.00000005,-0.00000108,-0.00000202,
 -0.00000062,-0.00000026,-0.00000177,-0.00000039,0.00000438,-0.00000310
 ,0.00000281,-0.00000071,-0.00000181,-0.00000002,0.00001081,0.00000384,
 0.00000050,-0.00001052,0.00000148,-0.00000386,-0.00004952,0.00004500,0
 .00003139,0.00006547,-0.00000361,-0.00000462,0.00001239,0.00001244,-0.
 00000550,0.00000603,0.00002045,0.00002263,-0.00000912,0.00002095,-0.00
 000440,0.00083490,-0.00128356,0.00108360,0.00196743,-0.02126015,-0.024
 76099,0.00000188,0.00001617,-0.00002122,0.00000175,0.00000067,-0.00000
 181,-0.00000194,0.00000011,0.00000028,-0.00070614,0.00037614,0.0001138
 1,-0.00014651,-0.00026401,0.00040420,0.00084758,0.00348172,-0.00418100
 ,0.01121868,-0.13170057,-0.17842115,-0.00003957,0.00219780,0.00117058,
 -0.00037051,0.00598376,0.00552585,-0.01274103,0.14200569,0.19683152\\0
 .00000013,0.00000022,-0.00000188,0.00000180,0.00000002,0.00000094,0.00
 000193,0.00000105,0.00000031,0.00000044,0.00000154,0.00000025,0.000000
 72,-0.00000175,-0.00000350,-0.00000036,-0.00000154,0.00000064,-0.00000
 105,-0.00000084,0.00000118,-0.00000076,-0.00000013,0.00000195,-0.00000
 159,0.00000063,-0.00000075,-0.00000105,0.00000104,0.00000067,-0.000000
 83,-0.00000217,0.00000070,-0.00000030,0.00000274,0.00000093,-0.0000001
 8,0.00000262,0.00000061,0.00000051,0.00000184,0.00000032,0.00000026,0.
 00000156,0.00000030,-0.00000013,0.00000217,0.00000037,-0.00000077,0.00
 000338,0.00000102,-0.00000012,0.00000336,0.00000077,0.00000064,0.00000
 204,0.00000015,0.00000027,0.00000091,0.00000008,-0.00000041,0.00000215
 ,0.00000071,0.00000156,0.00000131,-0.00000028,0.00000219,0.00000150,-0
 .00000038,0.00000263,0.00000059,-0.00000138,0.00000415,-0.00000138,-0.
 00000328,-0.00000195,-0.00000099,0.00000022,-0.00000249,-0.00000036,0.
 00000082,-0.00000210,0.00000032,0.00000088,0.00000038,-0.00000243,-0.0
 0000096,0.00000131,-0.00000151,0.00000078,-0.00000208,-0.00000166,0.00
 000048,-0.00000316,-0.00000057,0.00000111,-0.00000268,0.00000085,0.000
 00118,-0.00000007,-0.00000339,-0.00000098,0.00000054,-0.00000230,-0.00
 000067,0.00000130,-0.00000189,-0.00000099,0.00000133,-0.00000232,-0.00
 000121,0.00000153,-0.00000312,-0.00000129,-0.00000190,-0.00000088,0.00
 000092,0.00000037,-0.00000261,-0.00000071\\\@


 THE ENLIGHTENED ONE, BECAUSE HE SAW MANKIND DROWNING  
 IN THE GREAT SEA OF BIRTH, DEATH, AND SORROW, LONGED TO SAVE 
 THEM, FOR THIS HE WAS MOVED TO PITY.                         
 BECAUSE HE SAW MEN OF THE WORLD STRAYING IN FALSE PATHS, AND 
 NONE TO GUIDE THEM, FOR THIS HE WAS MOVED TO PITY.           
                     ..................                       
 BECAUSE HE SAW THE MEN OF THE WORLD PLOUGHING THEIR FIELDS,  
 SOWING THE SEED, TRAFFICKING, HUCKSTERING, BUYING, SELLING,  
 AND AT THE END WINNOWING NOTHING BUT BITTERNESS,             
 FOR THIS HE WAS MOVED TO PITY......                   
                   BUDAH'S PITY - UPSAKA SILA SUTRA           
 Job cpu time:       0 days 22 hours 57 minutes  8.4 seconds.
 File lengths (MBytes):  RWF=    774 Int=      0 D2E=      0 Chk=     14 Scr=      1
 Normal termination of Gaussian 09 at Thu Jun  2 17:53:17 2016.
