Job c2 started on d6copt023.crc.nd.edu at Fri Apr 11 11:56:18 2014
jobid: d6copt023-0-5348109f

  +--------------------------------------------------------------------+
  |  Jaguar version 8.1, release  14                                   |
  |                                                                    |
  |  Copyright Schrodinger, LLC                                        |
  |  All Rights Reserved.                                              |
  |                                                                    |
  |  Use of this program should be acknowledged in publications as:    |
  |  Jaguar, version 8.1, Schrodinger, LLC, New York, NY, 2013.        |
  +--------------------------------------------------------------------+
  
  start of program pre
  
  Job name: c2
  Executables used: /opt/crc/schrodinger/2013u2/jaguar-v81014/bin/Linux-x86_64
  Temporary files : /tmp/ehansen3/c2#d6copt023-0-5348109f
  Maestro file (input):  c2.mae
  Maestro file (output): c2.01.mae
  
  
  basis set:             cc-pvtz(-f)++   
  net molecular charge:    0
  multiplicity:            1
  
  Running   8 MPI processes
   
  Master MPI process running on d6copt023.crc.nd.edu
   Slave MPI process   1 running on d6copt023.crc.nd.edu
   Slave MPI process   2 running on d6copt023.crc.nd.edu
   Slave MPI process   3 running on d6copt023.crc.nd.edu
   Slave MPI process   4 running on d6copt023.crc.nd.edu
   Slave MPI process   5 running on d6copt023.crc.nd.edu
   Slave MPI process   6 running on d6copt023.crc.nd.edu
   Slave MPI process   7 running on d6copt023.crc.nd.edu
  
  number of basis functions....          216
  
 Input geometry:
                                   angstroms
  atom               x                 y                 z
  S1           -0.0039751689      0.0013470579      0.1096812624 
  O2            1.2626639889     -0.0734274762      0.8131283186 
  O3           -1.2530450002      0.0840259081      0.8429392475 
  N4           -0.0700639594      1.2522474022     -0.9880733270 
  N5            0.0356462860     -1.2619595505     -0.9751715759 
  H6           -0.4500955010      2.0778545616     -0.5346644018 
  H7            0.8373968917      1.4261241358     -1.4106108782 
  H8           -0.8828692373     -1.4436142997     -1.3700957187 
  H9            0.4306740140     -2.0808844732     -0.5221522552 
   
  principal moments of inertia:
        amu*angstrom^2:      103.72340      109.90559      113.69000
                g*cm^2: 1.72236739E-38 1.82502509E-38 1.88786667E-38
   
  rotational constants:
               cm^(-1):      0.16252484      0.15338281      0.14827715
                   GHz:      4.87237209      4.59830105      4.44523701
   
  Molecular weight:      96.00 amu
   
  Stoichiometry: N2H4SO2
  Molecular Point Group: C1      
  Point Group used: C1
  
 
Number of optimization coordinates:    21
Number of independent coordinates:     21
Number of non-redundant coordinates:   21
Number of frozen coordinates:           0
Number of harmonic constraints:         0
 
Number of geometric degrees of freedom:    21
Maximum geometric degrees of freedom:      21
 " " " " " excluding dummy atoms:          21
 
  nuclear repulsion energy.......     282.473806616 hartrees
 
 Non-default options chosen:
   SCF calculation type: DFT(m06)                    
   DFT=M06
   Geometry will be optimized in redundant internal coordinates
   Vibrational frequencies and related properties will be computed
      from analytic second derivatives
   IR intensities will be computed
   High accuracy cutoffs used in SCF
   Initial Hessian:  analytic 2nd derivatives
   Electrostatic potential fit to point charges on atomic centers
   Electrostatic potential fitting constrained to reproduce
     total charge:                yes
     dipole moment:               yes
     traceless quadrupole moment: no 
     traceless octapole moment:   no 
   Store KE, NAI, and pt. chg. terms separately
  
 Temporary integer options set:
     73=  2
  
  Peak memory usage:    734 Mb
  
  end of program pre
   
 Time(pre)  user:        0.0  user+sys:        0.0  wallclock:        3.1
  
  start of program onee
  
  smallest eigenvalue of S:    4.434E-05
  number of canonical orbitals.....          208
  Peak memory usage:    830 Mb
  
  end of program onee
   
 Time(onee)  user:        0.0  user+sys:        0.0  wallclock:        2.1
  
  start of program hfig
  
  initial wavefunction generated automatically from atomic wavefunctions
 
  Irreducible     Total no   No of occupied orbitals 
  representation  orbitals   Shell_1  Shell_2    ...
  No Symm          208         25
  ------------------------
  Orbital occupation/shell    1.000
 
  Peak memory usage:    770 Mb
  
  end of program hfig
   
 Time(hfig)  user:        0.0  user+sys:        0.0  wallclock:        1.9
  
  start of program probe
  
  Peak memory usage:    770 Mb
  
  end of program probe
   
 Time(probe)  user:        0.0  user+sys:        0.0  wallclock:        1.5
  
  start of program grid
  
  
   grid     grid set  grid #  grid sym
  ------    --------  ------  --------
  coarse        0        0        1
  medium        2        1        1
  fine          0        0        1
  ultrafine     4        2        1
  charge       -1        3        1
  gradient      4        2        1
  density       0        0        1
  DFT-fine    -11        4        1
  DFT-med.    -10        5        1
  DFT-grad    -12        6        1
  DFT-der2     -8        7        1
  DFT-cphf     -9        8        1
  LMP2-enrg     4        2        1
  LMP2-grad     2        1        1
  DFT-cphf2   -15        9        1
  PBF-dens      0        0        1
  plotting      0        0        1
  
   
  number of gridpoints: 
     atom        S1       O2       O3       N4       N5       H6       H7
  grid # 1      559      735      735      488      489      225      226
  grid # 2      559      735      735      488      489      226      227
  grid # 3       13     1382     1383      211      210     1255     1239
  grid # 4    22280    22280    22280    22280    22280    22280    22280
  grid # 5     2152     2152     2152     2152     2152     2152     2152
  grid # 6    21648    21648    21648    21648    21648    21648    21648
  grid # 7    65628    63040    63040    62394    62394    66806    66806
  grid # 8     3470     7568     7568     8972     8972     9848     9848
  grid # 9      802     1434     1434     3852     3852     2486     2486
   
  number of gridpoints: 
     atom        H8       H9    total
  grid # 1      226      225     3908
  grid # 2      227      226     3912
  grid # 3     1240     1252     8185
  grid # 4    22280    22280   200520
  grid # 5     2152     2152    19368
  grid # 6    21648    21648   194832
  grid # 7    66806    66806   583720
  grid # 8     9848     9848    75942
  grid # 9     2486     2486    21318
   
  Sorting grid blocks by size.
  Peak memory usage:    785 Mb
  
  end of program grid
   
 Time(grid)  user:        1.0  user+sys:        2.0  wallclock:        4.0
  
  start of program rwr
  
  Peak memory usage:    748 Mb
  
  end of program rwr
   
 Time(rwr)  user:        1.0  user+sys:        1.0  wallclock:        2.5
  
  start of program scf
  
 number of electrons..........         50
 number of alpha electrons....         25
 number of beta electrons.....         25
 number of orbitals, total....        208
 number of doubly-occ'd orbs..         25
 number of open shell orbs....          0
 number of occupied orbitals..         25
 number of virtual orbitals...        183
 number of hamiltonians.......          1
 number of shells.............          1
 SCF type: DFT=M06
  
       i  u  d  i  g                   
       t  p  i  c  r                                 RMS    maximum
       e  d  i  u  i                       energy  density   DIIS  
       r  t  s  t  d       total energy    change  change    error 
  
etot    1  N  N  4  M    -658.92205754642           4.5E-03  1.2E-01
etot    2  Y  Y  6  M    -659.88553630124  9.6E-01  2.5E-03  8.6E-02
etot    3  Y  Y  6  M    -660.40499461508  5.2E-01  7.6E-04  3.4E-02
etot    4  N  Y  1  U    -660.45635748340  5.1E-02  7.1E-04  1.6E-02
etot    5  Y  Y  6  M    -660.46673381721  1.0E-02  3.9E-04  7.6E-03
etot    6  N  Y  1  U    -660.46713505408  4.0E-04  1.5E-04  1.5E-03
etot    7  Y  Y  6  M    -660.46735739989  2.2E-04  1.6E-05  4.3E-04
etot    8  N  Y  1  U    -660.46733781918 -2.0E-05  7.7E-06  8.1E-05
etot    9  N  Y  1  U    -660.46733778457 -3.5E-08  1.7E-06  1.7E-05
etot   10  N  N  1  U    -660.46733777502 -9.5E-09  0.0E+00  0.0E+00
  
  
 Energy components, in hartrees:
   (A)  Nuclear repulsion............     282.47380661632
   (E)  Total one-electron terms.....   -1468.72763956276
   (F)    Electron-nuclear...........   -2125.92080973820
   (H)    Kinetic....................     657.19317017544
   (I)  Total two-electron terms.....     525.78649517141
   (J)    Coulomb....................     583.94035622421
   (K)    Exchange+Correlation.......     -58.15386105280
   (L)  Electronic energy............    -942.94114439134  (E+I)
   (M)  -V/T.........................       2.00498204751  (-(A+F+I)/H)
   (N)  Total energy.................    -660.46733777502  (A+L)
  
 SCFE: SCF energy: DFT(m06)      -660.46733777502 hartrees   iterations:  10
  
 
 HOMO energy:    -0.30667
 LUMO energy:    -0.05178
 
  Orbital energies (hartrees): 
   -89.31336   -19.22348   -19.22339   -14.43973   -14.43968    -8.27118
    -6.18904    -6.18893    -6.18736    -1.16221    -1.04723    -0.95679
    -0.92947    -0.67633    -0.57773    -0.56213    -0.53357    -0.51884
    -0.47343    -0.38877    -0.38792    -0.36610    -0.34080    -0.33447
    -0.30667    -0.05178    -0.03588    -0.01957    -0.01482     0.01136
     0.01665     0.02808     0.03439     0.03912     0.06597
 
  Peak memory usage:    855 Mb
  
  end of program scf
   
 Time(scf)  user:       33.0  user+sys:       34.0  wallclock:       40.8
  
  start of program cutabab2
  
  Peak memory usage:    553 Mb
  
  end of program cutabab2
   
 Time(cutabab2)  user:        1.0  user+sys:        1.0  wallclock:        1.5
  
  start of program der2a
  
  Peak memory usage:    600 Mb
  
  end of program der2a
   
 Time(der2a)  user:        0.0  user+sys:        0.0  wallclock:        1.0
  
  start of program der2b
  
  Peak memory usage:    963 Mb
  
  end of program der2b
   
 Time(der2b)  user:      292.0  user+sys:      308.0  wallclock:      309.9
  
  start of program der2nda
  
 
  Peak memory usage:    599 Mb
  
  end of program der2nda
   
 Time(der2nda)  user:        0.0  user+sys:        0.0  wallclock:        0.9
  
  start of program der2ndb
  
  Peak memory usage:    793 Mb
  
  end of program der2ndb
   
 Time(der2ndb)  user:      728.0  user+sys:      864.0  wallclock:      866.4
  
  start of program rwr
  
  Peak memory usage:    748 Mb
  
  end of program rwr
   
 Time(rwr)  user:        1.0  user+sys:        1.0  wallclock:        2.5
  
  start of program cphfa
  
       1  vectors produced in CPHF
  
     v    i  j  k  i  g
     e    t  c  c  c  r
     c    e  o  o  u  i
     t    r  r  r  t  d       RMS  
  
     1    1  0  0  6  M     1.6E-02
     1    2  0  0  6  M     1.0E-03
     1    3  0  0  6  M     3.4E-04
     1    4  0  0  6  M     1.2E-04
     1    5  0  0  6  M     3.9E-05
  
  
  Atomic Polar Tensors (au): Total
  =========================
  
  APT for atom S1      
  --------------------------------------
        2.1840      -0.0441       0.0001
       -0.0744       2.3331      -0.0002
        0.0003      -0.0008       2.1753
  --------------------------------------
  
  APT for atom O2      
  --------------------------------------
       -1.0467       0.0457      -0.3706
        0.0495      -0.6641       0.0623
       -0.2542       0.0295      -0.7815
  --------------------------------------
  
  APT for atom O3      
  --------------------------------------
       -1.0313       0.0493       0.3760
        0.0506      -0.6649      -0.0650
        0.2597      -0.0319      -0.7957
  --------------------------------------
  
  APT for atom N4      
  --------------------------------------
       -0.4418       0.0394      -0.0720
        0.0114      -0.8216       0.2933
       -0.0767       0.3684      -0.7489
  --------------------------------------
  
  APT for atom N5      
  --------------------------------------
       -0.4379       0.0314       0.0638
        0.0051      -0.8290      -0.2921
        0.0689      -0.3684      -0.7452
  --------------------------------------
  
  APT for atom H6      
  --------------------------------------
        0.2392      -0.0778       0.0663
       -0.0232       0.1798      -0.0139
        0.0431      -0.0181       0.1742
  --------------------------------------
  
  APT for atom H7      
  --------------------------------------
        0.1493       0.0171       0.0165
        0.0029       0.1433       0.0420
        0.0137      -0.0064       0.2718
  --------------------------------------
  
  APT for atom H8      
  --------------------------------------
        0.1486       0.0171      -0.0132
        0.0016       0.1430      -0.0406
       -0.0102       0.0076       0.2730
  --------------------------------------
  
  APT for atom H9      
  --------------------------------------
        0.2363      -0.0779      -0.0670
       -0.0233       0.1799       0.0142
       -0.0445       0.0202       0.1769
  --------------------------------------
  
  Peak memory usage:    860 Mb
  
  end of program cphfa
   
 Time(cphfa)  user:      272.0  user+sys:      281.0  wallclock:      283.9
  
  start of program der1a
  
  Peak memory usage:    830 Mb
  
  end of program der1a
   
 Time(der1a)  user:        0.0  user+sys:        0.0  wallclock:        1.7
  
  start of program rwr
  
  Peak memory usage:    753 Mb
  
  end of program rwr
   
 Time(rwr)  user:        0.0  user+sys:        0.0  wallclock:        2.1
  
  start of program der1b
  
   
  forces (hartrees/bohr) : total     
   
 atom  label           x              y              z
 ---- --------   -------------  -------------  -------------
    1 S1          1.852743E-04   4.789269E-05   1.128787E-02
    2 O2         -1.868248E-02   1.166919E-03  -1.011657E-02
    3 O3          1.839492E-02  -1.246774E-03  -1.054829E-02
    4 N4         -4.936993E-05  -1.775489E-03   1.345862E-03
    5 N5         -2.682255E-05   1.667368E-03   1.377505E-03
    6 H6          1.356116E-03  -1.823585E-03  -5.069021E-04
    7 H7         -1.376715E-03  -5.521617E-05   2.053175E-03
    8 H8          1.573955E-03   1.193508E-04   2.053444E-03
    9 H9         -1.437057E-03   1.863459E-03  -5.738654E-04
 -------------   -------------  -------------  -------------
     total       -6.218655E-05  -3.607492E-05  -3.627773E-03
   
  Peak memory usage:    860 Mb
  
  end of program der1b
   
 Time(der1b)  user:       15.0  user+sys:       15.0  wallclock:       17.1
  
  start of program geopt
  
  geometry optimization step  1
  energy:            -660.46733777502 hartrees
  
  gradient maximum:        2.1075E-02 .  (  4.5000E-04 )
  gradient rms:            6.9240E-03 .  (  3.0000E-04 )
  displacement maximum:    6.9482E-02 .  (  1.8000E-03 )
  displacement rms:        2.5946E-02 .  (  1.2000E-03 )
  
  predicted energy change:  -1.0071E-03
  step size:     0.11890
  trust radius:  0.30000
  
  molecular structure not yet converged...
  
  center of mass moved by:
     x:     3.5595E-04     y:    -2.6746E-04     z:    -4.0423E-02
  
  new geometry: 
                                   angstroms
  atom               x                 y                 z
  S1           -0.0038121965      0.0012716586      0.1059826462 
  O2            1.2487591424     -0.0702740407      0.7998897954 
  O3           -1.2385707187      0.0818255096      0.8302264127 
  N4           -0.0595816158      1.2574016048     -0.9771446285 
  N5            0.0242504001     -1.2681320230     -0.9622887233 
  H6           -0.4594539307      2.0635545533     -0.5096022401 
  H7            0.8662070752      1.4630332362     -1.3359720633 
  H8           -0.9097154170     -1.4768218030     -1.2971562362 
  H9            0.4365540589     -2.0688712968     -0.4964375883 
   
  nuclear repulsion energy.......     284.649479937 hartrees
  -------------------------------------------------
 /  end of geometry optimization iteration   1   /
 -------------------------------------------------
   
  Peak memory usage:    449 Mb
  
  end of program geopt
   
 Time(geopt)  user:        0.0  user+sys:        0.0  wallclock:        0.4
  
  start of program onee
  
  smallest eigenvalue of S:    4.488E-05
  number of canonical orbitals.....          208
  Peak memory usage:    830 Mb
  
  end of program onee
   
 Time(onee)  user:        0.0  user+sys:        0.0  wallclock:        1.7
  
  start of program probe
  
  Peak memory usage:    770 Mb
  
  end of program probe
   
 Time(probe)  user:        0.0  user+sys:        0.0  wallclock:        1.5
  
  start of program grid
  
  
   grid     grid set  grid #  grid sym
  ------    --------  ------  --------
  coarse        0        0        1
  medium        2        1        1
  fine          0        0        1
  ultrafine     4        2        1
  charge       -1        3        1
  gradient      4        2        1
  density       0        0        1
  DFT-fine    -11        4        1
  DFT-med.    -10        5        1
  DFT-grad    -12        6        1
  DFT-der2     -8        7        1
  DFT-cphf     -9        8        1
  LMP2-enrg     4        2        1
  LMP2-grad     2        1        1
  DFT-cphf2   -15        9        1
  PBF-dens      0        0        1
  plotting      0        0        1
  
   
  number of gridpoints: 
     atom        S1       O2       O3       N4       N5       H6       H7
  grid # 1      544      736      736      496      494      224      225
  grid # 2      544      736      736      496      494      225      226
  grid # 3       12     1348     1348      228      228     1237     1225
  grid # 4    22280    22280    22280    22280    22280    22280    22280
  grid # 5     2152     2152     2152     2152     2152     2152     2152
  grid # 6    21648    21648    21648    21648    21648    21648    21648
  grid # 7    65628    63040    63040    62394    62394    66806    66806
  grid # 8     3470     7568     7568     8972     8972     9848     9848
  grid # 9      802     1434     1434     3852     3852     2486     2486
   
  number of gridpoints: 
     atom        H8       H9    total
  grid # 1      225      224     3904
  grid # 2      226      225     3908
  grid # 3     1225     1238     8089
  grid # 4    22280    22280   200520
  grid # 5     2152     2152    19368
  grid # 6    21648    21648   194832
  grid # 7    66806    66806   583720
  grid # 8     9848     9848    75942
  grid # 9     2486     2486    21318
   
  Sorting grid blocks by size.
  Peak memory usage:    785 Mb
  
  end of program grid
   
 Time(grid)  user:        1.0  user+sys:        2.0  wallclock:        3.9
  
  start of program rwr
  
  Peak memory usage:    748 Mb
  
  end of program rwr
   
 Time(rwr)  user:        1.0  user+sys:        1.0  wallclock:        9.3
  
  start of program scf
  
  
       i  u  d  i  g                   
       t  p  i  c  r                                 RMS    maximum
       e  d  i  u  i                       energy  density   DIIS  
       r  t  s  t  d       total energy    change  change    error 
  
etot    1  N  N  1  U    -660.46611318240           1.8E-04  3.8E-03
etot    2  Y  Y  6  M    -660.46765218924  1.5E-03  5.8E-05  1.4E-03
etot    3  Y  Y  6  M    -660.46774075291  8.9E-05  2.4E-05  1.5E-03
etot    4  N  Y  1  U    -660.46781759000  7.7E-05  7.7E-06  2.6E-04
etot    5  N  Y  1  U    -660.46782286530  5.3E-06  4.2E-06  5.0E-05
etot    6  N  N  1  U    -660.46782335572  4.9E-07  0.0E+00  0.0E+00
  
  
 Energy components, in hartrees:
   (A)  Nuclear repulsion............     284.64947993744
   (E)  Total one-electron terms.....   -1473.03070117053
   (F)    Electron-nuclear...........   -2130.39465045170
   (H)    Kinetic....................     657.36394928118
   (I)  Total two-electron terms.....     527.91339787736
   (J)    Coulomb....................     586.10931042859
   (K)    Exchange+Correlation.......     -58.19591255123
   (L)  Electronic energy............    -945.11730329317  (E+I)
   (M)  -V/T.........................       2.00472169805  (-(A+F+I)/H)
   (N)  Total energy.................    -660.46782335572  (A+L)
  
 SCFE: SCF energy: DFT(m06)      -660.46782335572 hartrees   iterations:   6
  
 
 HOMO energy:    -0.30774
 LUMO energy:    -0.05088
 
  Orbital energies (hartrees): 
   -89.30954   -19.22190   -19.22185   -14.43763   -14.43762    -8.26862
    -6.18629    -6.18628    -6.18482    -1.17150    -1.05462    -0.95773
    -0.93230    -0.67409    -0.57760    -0.56005    -0.53517    -0.52077
    -0.47348    -0.39348    -0.39118    -0.36842    -0.34239    -0.33738
    -0.30774    -0.05088    -0.03547    -0.01940    -0.01369     0.01101
     0.01718     0.02755     0.03518     0.03971     0.06831
 
  Peak memory usage:    855 Mb
  
  end of program scf
   
 Time(scf)  user:       23.0  user+sys:       25.0  wallclock:       27.8
  
  start of program der1a
  
  Peak memory usage:    835 Mb
  
  end of program der1a
   
 Time(der1a)  user:        0.0  user+sys:        0.0  wallclock:        1.6
  
  start of program rwr
  
  Peak memory usage:    748 Mb
  
  end of program rwr
   
 Time(rwr)  user:        0.0  user+sys:        0.0  wallclock:        2.1
  
  start of program der1b
  
   
  forces (hartrees/bohr) : total     
   
 atom  label           x              y              z
 ---- --------   -------------  -------------  -------------
    1 S1         -1.449205E-04  -3.098567E-05  -1.990114E-03
    2 O2          6.543080E-04  -1.064843E-04  -1.692024E-05
    3 O3         -5.960796E-04   9.473713E-05   3.537007E-05
    4 N4          1.314406E-04   2.806570E-05  -3.808847E-04
    5 N5         -3.391279E-06   6.239265E-05  -4.981506E-04
    6 H6         -1.472702E-04  -1.768704E-05  -3.292436E-04
    7 H7          1.577243E-04   4.923313E-05  -2.486006E-04
    8 H8         -1.613493E-04  -1.169798E-04  -1.754744E-04
    9 H9          6.831756E-05  -1.816760E-06  -3.092176E-04
 -------------   -------------  -------------  -------------
     total       -4.122041E-05  -3.952490E-05  -3.913235E-03
   
  Peak memory usage:    860 Mb
  
  end of program der1b
   
 Time(der1b)  user:       15.0  user+sys:       15.0  wallclock:       17.0
  
  start of program geopt
  
  geometry optimization step  2
  energy:            -660.46782335572 hartrees
  
  energy change:          -4.8558E-04 .  (  5.0000E-05 )
  gradient maximum:        1.2412E-03 .  (  4.5000E-04 )
  gradient rms:            4.2525E-04 .  (  3.0000E-04 )
  displacement maximum:    3.2903E-02 .  (  1.8000E-03 )
  displacement rms:        1.1390E-02 .  (  1.2000E-03 )
  
  predicted energy change:  -2.5498E-05
  step size:     0.05220
  trust radius:  0.30000
  
  molecular structure not yet converged...
  
  center of mass moved by:
     x:     1.4825E-04     y:    -1.5311E-04     z:    -1.3015E-02
  
  new geometry: 
                                   angstroms
  atom               x                 y                 z
  S1           -0.0039223410      0.0012731723      0.1039283196 
  O2            1.2494420043     -0.0750639534      0.7965497905 
  O3           -1.2393987666      0.0861857688      0.8270203480 
  N4           -0.0510161201      1.2622575322     -0.9730335905 
  N5            0.0161695285     -1.2725526310     -0.9587625056 
  H6           -0.4702447152      2.0595941407     -0.5061542669 
  H7            0.8820622705      1.4820683846     -1.3085919767 
  H8           -0.9249161914     -1.4953552989     -1.2688682311 
  H9            0.4457553006     -2.0646901256     -0.4926063733 
   
  nuclear repulsion energy.......     284.645495490 hartrees
  -------------------------------------------------
 /  end of geometry optimization iteration   2   /
 -------------------------------------------------
   
  Peak memory usage:    449 Mb
  
  end of program geopt
   
 Time(geopt)  user:        0.0  user+sys:        0.0  wallclock:        0.3
  
  start of program onee
  
  smallest eigenvalue of S:    4.584E-05
  number of canonical orbitals.....          208
  Peak memory usage:    831 Mb
  
  end of program onee
   
 Time(onee)  user:        0.0  user+sys:        0.0  wallclock:        1.6
  
  start of program probe
  
  Peak memory usage:    771 Mb
  
  end of program probe
   
 Time(probe)  user:        0.0  user+sys:        1.0  wallclock:        4.4
  
  start of program grid
  
  
   grid     grid set  grid #  grid sym
  ------    --------  ------  --------
  coarse        0        0        1
  medium        2        1        1
  fine          0        0        1
  ultrafine     4        2        1
  charge       -1        3        1
  gradient      4        2        1
  density       0        0        1
  DFT-fine    -11        4        1
  DFT-med.    -10        5        1
  DFT-grad    -12        6        1
  DFT-der2     -8        7        1
  DFT-cphf     -9        8        1
  LMP2-enrg     4        2        1
  LMP2-grad     2        1        1
  DFT-cphf2   -15        9        1
  PBF-dens      0        0        1
  plotting      0        0        1
  
   
  number of gridpoints: 
     atom        S1       O2       O3       N4       N5       H6       H7
  grid # 1      543      735      735      496      496      224      225
  grid # 2      543      735      735      496      496      225      226
  grid # 3       12     1343     1343      233      233     1233     1233
  grid # 4    22280    22280    22280    22280    22280    22280    22280
  grid # 5     2152     2152     2152     2152     2152     2152     2152
  grid # 6    21648    21648    21648    21648    21648    21648    21648
  grid # 7    65628    63040    63040    62394    62394    66806    66806
  grid # 8     3470     7568     7568     8972     8972     9848     9848
  grid # 9      802     1434     1434     3852     3852     2486     2486
   
  number of gridpoints: 
     atom        H8       H9    total
  grid # 1      225      224     3903
  grid # 2      226      225     3907
  grid # 3     1233     1233     8096
  grid # 4    22280    22280   200520
  grid # 5     2152     2152    19368
  grid # 6    21648    21648   194832
  grid # 7    66806    66806   583720
  grid # 8     9848     9848    75942
  grid # 9     2486     2486    21318
   
  Sorting grid blocks by size.
  Peak memory usage:    785 Mb
  
  end of program grid
   
 Time(grid)  user:        1.0  user+sys:        2.0  wallclock:       10.1
  
  start of program rwr
  
  Peak memory usage:    748 Mb
  
  end of program rwr
   
 Time(rwr)  user:        1.0  user+sys:        1.0  wallclock:        2.4
  
  start of program scf
  
  
       i  u  d  i  g                   
       t  p  i  c  r                                 RMS    maximum
       e  d  i  u  i                       energy  density   DIIS  
       r  t  s  t  d       total energy    change  change    error 
  
etot    1  N  N  1  U    -660.46749188927           6.8E-05  1.5E-03
etot    2  Y  Y  6  M    -660.46777521404  2.8E-04  1.7E-05  3.4E-04
etot    3  N  Y  1  U    -660.46779826913  2.3E-05  4.9E-06  1.8E-04
etot    4  N  N  1  U    -660.46780073139  2.5E-06  0.0E+00  0.0E+00
  
  
 Energy components, in hartrees:
   (A)  Nuclear repulsion............     284.64549549040
   (E)  Total one-electron terms.....   -1473.02418754826
   (F)    Electron-nuclear...........   -2130.38192119269
   (H)    Kinetic....................     657.35773364443
   (I)  Total two-electron terms.....     527.91089132648
   (J)    Coulomb....................     586.10509357720
   (K)    Exchange+Correlation.......     -58.19420225072
   (L)  Electronic energy............    -945.11329622178  (E+I)
   (M)  -V/T.........................       2.00473116376  (-(A+F+I)/H)
   (N)  Total energy.................    -660.46780073139  (A+L)
  
 SCFE: SCF energy: DFT(m06)      -660.46780073139 hartrees   iterations:   4
  
 
 HOMO energy:    -0.30776
 LUMO energy:    -0.05075
 
  Orbital energies (hartrees): 
   -89.30941   -19.22262   -19.22245   -14.43735   -14.43735    -8.26855
    -6.18621    -6.18618    -6.18475    -1.17168    -1.05500    -0.95696
    -0.93245    -0.67375    -0.57680    -0.55897    -0.53584    -0.52137
    -0.47314    -0.39365    -0.39133    -0.36813    -0.34221    -0.33826
    -0.30776    -0.05075    -0.03544    -0.01952    -0.01326     0.01070
     0.01749     0.02726     0.03541     0.03991     0.06848
 
  Peak memory usage:    855 Mb
  
  end of program scf
   
 Time(scf)  user:       17.0  user+sys:       20.0  wallclock:       21.7
  
  start of program der1a
  
  Peak memory usage:    835 Mb
  
  end of program der1a
   
 Time(der1a)  user:        0.0  user+sys:        1.0  wallclock:        2.9
  
  start of program rwr
  
  Peak memory usage:    748 Mb
  
  end of program rwr
   
 Time(rwr)  user:        0.0  user+sys:        0.0  wallclock:        2.3
  
  start of program der1b
  
   
  forces (hartrees/bohr) : total     
   
 atom  label           x              y              z
 ---- --------   -------------  -------------  -------------
    1 S1          4.137115E-05  -4.314285E-06  -8.459287E-04
    2 O2          5.508777E-04  -1.101627E-04  -1.041571E-04
    3 O3         -5.823177E-04   8.089022E-05  -7.914205E-05
    4 N4          1.036353E-03   7.507918E-04  -8.270647E-04
    5 N5         -1.067780E-03  -6.910673E-04  -7.689680E-04
    6 H6          1.496100E-04  -2.706551E-04  -6.938509E-04
    7 H7         -1.198429E-03  -2.797527E-04   3.906084E-05
    8 H8          1.151803E-03   2.717096E-04  -8.697760E-06
    9 H9         -1.257620E-04   2.168264E-04  -6.658771E-04
 -------------   -------------  -------------  -------------
     total       -4.427398E-05  -3.573416E-05  -3.954625E-03
   
  Peak memory usage:    860 Mb
  
  end of program der1b
   
 Time(der1b)  user:       15.0  user+sys:       15.0  wallclock:       17.3
  
  start of program geopt
  
  geometry optimization step  3
  energy:            -660.46780073139 hartrees
  
  energy change:           2.2624E-05 *  (  5.0000E-05 )
  gradient maximum:        1.3246E-03 .  (  4.5000E-04 )
  gradient rms:            4.7806E-04 .  (  3.0000E-04 )
  displacement maximum:    7.0382E-03 .  (  1.8000E-03 )
  displacement rms:        2.8627E-03 .  (  1.2000E-03 )
  
  predicted energy change:  -5.4919E-06
  step size:     0.01312
  trust radius:  0.30000
  
  molecular structure not yet converged...
  
  center of mass moved by:
     x:    -2.7971E-04     y:    -5.0140E-06     z:    -1.3273E-03
  
  new geometry: 
                                   angstroms
  atom               x                 y                 z
  S1           -0.0039553398      0.0012856250      0.1034237345 
  O2            1.2495427220     -0.0774187602      0.7962401072 
  O3           -1.2397599132      0.0882164895      0.8264111518 
  N4           -0.0484777255      1.2634704736     -0.9720291877 
  N5            0.0139067885     -1.2734233427     -0.9579951324 
  H6           -0.4720595198      2.0591426209     -0.5073526192 
  H7            0.8835706856      1.4845504587     -1.3045961358 
  H8           -0.9263630945     -1.4985267821     -1.2640413888 
  H9            0.4488585958     -2.0635558227     -0.4942577259 
   
  nuclear repulsion energy.......     284.638283727 hartrees
  -------------------------------------------------
 /  end of geometry optimization iteration   3   /
 -------------------------------------------------
   
  Peak memory usage:    449 Mb
  
  end of program geopt
   
 Time(geopt)  user:        0.0  user+sys:        0.0  wallclock:        0.3
  
  start of program onee
  
  smallest eigenvalue of S:    4.598E-05
  number of canonical orbitals.....          208
  Peak memory usage:    830 Mb
  
  end of program onee
   
 Time(onee)  user:        0.0  user+sys:        0.0  wallclock:        1.6
  
  start of program probe
  
  Peak memory usage:    775 Mb
  
  end of program probe
   
 Time(probe)  user:        0.0  user+sys:        0.0  wallclock:        1.5
  
  start of program grid
  
  
   grid     grid set  grid #  grid sym
  ------    --------  ------  --------
  coarse        0        0        1
  medium        2        1        1
  fine          0        0        1
  ultrafine     4        2        1
  charge       -1        3        1
  gradient      4        2        1
  density       0        0        1
  DFT-fine    -11        4        1
  DFT-med.    -10        5        1
  DFT-grad    -12        6        1
  DFT-der2     -8        7        1
  DFT-cphf     -9        8        1
  LMP2-enrg     4        2        1
  LMP2-grad     2        1        1
  DFT-cphf2   -15        9        1
  PBF-dens      0        0        1
  plotting      0        0        1
  
   
  number of gridpoints: 
     atom        S1       O2       O3       N4       N5       H6       H7
  grid # 1      544      735      735      495      495      224      225
  grid # 2      544      735      735      495      495      225      226
  grid # 3       12     1343     1343      232      233     1234     1233
  grid # 4    22280    22280    22280    22280    22280    22280    22280
  grid # 5     2152     2152     2152     2152     2152     2152     2152
  grid # 6    21648    21648    21648    21648    21648    21648    21648
  grid # 7    65628    63040    63040    62394    62394    66806    66806
  grid # 8     3470     7568     7568     8972     8972     9848     9848
  grid # 9      802     1434     1434     3852     3852     2486     2486
   
  number of gridpoints: 
     atom        H8       H9    total
  grid # 1      225      224     3902
  grid # 2      226      225     3906
  grid # 3     1233     1234     8097
  grid # 4    22280    22280   200520
  grid # 5     2152     2152    19368
  grid # 6    21648    21648   194832
  grid # 7    66806    66806   583720
  grid # 8     9848     9848    75942
  grid # 9     2486     2486    21318
   
  Sorting grid blocks by size.
  Peak memory usage:    785 Mb
  
  end of program grid
   
 Time(grid)  user:        1.0  user+sys:        2.0  wallclock:        6.7
  
  start of program rwr
  
  Peak memory usage:    749 Mb
  
  end of program rwr
   
 Time(rwr)  user:        1.0  user+sys:        1.0  wallclock:        4.9
  
  start of program scf
  
  
       i  u  d  i  g                   
       t  p  i  c  r                                 RMS    maximum
       e  d  i  u  i                       energy  density   DIIS  
       r  t  s  t  d       total energy    change  change    error 
  
etot    1  N  N  1  U    -660.46778755927           1.9E-05  3.8E-04
etot    2  N  Y  1  U    -660.46780566438  1.8E-05  5.1E-06  9.8E-05
etot    3  N  Y  1  U    -660.46780635659  6.9E-07  1.9E-06  1.2E-04
etot    4  N  N  1  U    -660.46780702151  6.6E-07  0.0E+00  0.0E+00
  
  
 Energy components, in hartrees:
   (A)  Nuclear repulsion............     284.63828372705
   (E)  Total one-electron terms.....   -1473.00571112657
   (F)    Electron-nuclear...........   -2130.36752344658
   (H)    Kinetic....................     657.36181232001
   (I)  Total two-electron terms.....     527.89962037800
   (J)    Coulomb....................     586.09519329464
   (K)    Exchange+Correlation.......     -58.19557291664
   (L)  Electronic energy............    -945.10609074856  (E+I)
   (M)  -V/T.........................       2.00472493936  (-(A+F+I)/H)
   (N)  Total energy.................    -660.46780702151  (A+L)
  
 SCFE: SCF energy: DFT(m06)      -660.46780702151 hartrees   iterations:   4
  
 
 HOMO energy:    -0.30770
 LUMO energy:    -0.05071
 
  Orbital energies (hartrees): 
   -89.30977   -19.22206   -19.22196   -14.43754   -14.43753    -8.26882
    -6.18650    -6.18646    -6.18503    -1.17147    -1.05471    -0.95711
    -0.93291    -0.67408    -0.57718    -0.55920    -0.53637    -0.52156
    -0.47296    -0.39343    -0.39124    -0.36790    -0.34195    -0.33840
    -0.30770    -0.05071    -0.03542    -0.01955    -0.01318     0.01066
     0.01758     0.02719     0.03544     0.03996     0.06862
 
  Peak memory usage:    855 Mb
  
  end of program scf
   
 Time(scf)  user:       21.0  user+sys:       22.0  wallclock:       24.0
  
  start of program der1a
  
  Peak memory usage:    830 Mb
  
  end of program der1a
   
 Time(der1a)  user:        0.0  user+sys:        0.0  wallclock:        1.5
  
  start of program rwr
  
  Peak memory usage:    748 Mb
  
  end of program rwr
   
 Time(rwr)  user:        0.0  user+sys:        0.0  wallclock:        2.2
  
  start of program der1b
  
   
  forces (hartrees/bohr) : total     
   
 atom  label           x              y              z
 ---- --------   -------------  -------------  -------------
    1 S1         -4.623145E-05   1.915492E-05  -2.671804E-04
    2 O2          2.116795E-04  -2.617966E-05  -4.079276E-04
    3 O3         -1.656816E-04   2.246715E-05  -4.173530E-04
    4 N4         -1.555269E-07   1.432799E-05  -5.950969E-04
    5 N5         -9.885485E-05  -1.007270E-04  -5.870743E-04
    6 H6          3.109544E-05   1.095532E-05  -4.752939E-04
    7 H7          2.062923E-05   3.962839E-05  -3.394861E-04
    8 H8          5.267958E-05  -5.432322E-06  -3.247979E-04
    9 H9         -4.019180E-05  -2.599818E-06  -4.993496E-04
 -------------   -------------  -------------  -------------
     total       -3.503149E-05  -2.840497E-05  -3.913560E-03
   
  Peak memory usage:    860 Mb
  
  end of program der1b
   
 Time(der1b)  user:       15.0  user+sys:       15.0  wallclock:       16.9
  
  start of program geopt
  
  geometry optimization step  4
  energy:            -660.46780702151 hartrees
  
  energy change:          -6.2901E-06 *  (  5.0000E-05 )
  gradient maximum:        2.0138E-04 *  (  4.5000E-04 )
  gradient rms:            1.1854E-04 *  (  3.0000E-04 )
  displacement maximum:    1.2966E-02 .  (  1.8000E-03 )
  displacement rms:        4.8655E-03 .  (  1.2000E-03 )
  
  predicted energy change:  -2.7023E-06
  step size:     0.02230
  trust radius:  0.30000
  
  molecular structure not yet converged...
  
  center of mass moved by:
     x:     9.1622E-05     y:    -3.3147E-05     z:    -3.8516E-03
  
  new geometry: 
                                   angstroms
  atom               x                 y                 z
  S1           -0.0039483026      0.0012929312      0.1031199287 
  O2            1.2503385018     -0.0796511219      0.7948392753 
  O3           -1.2403343748      0.0906038556      0.8253143681 
  N4           -0.0447357622      1.2649999945     -0.9711636610 
  N5            0.0099266498     -1.2751612906     -0.9566789399 
  H6           -0.4769970524      2.0574208736     -0.5093530825 
  H7            0.8893152480      1.4916117835     -1.2930022576 
  H8           -0.9316231688     -1.5048694669     -1.2528671512 
  H9            0.4528852037     -2.0623485706     -0.4960620925 
   
  nuclear repulsion energy.......     284.602519825 hartrees
  -------------------------------------------------
 /  end of geometry optimization iteration   4   /
 -------------------------------------------------
   
  Peak memory usage:    449 Mb
  
  end of program geopt
   
 Time(geopt)  user:        0.0  user+sys:        0.0  wallclock:        0.3
  
  start of program onee
  
  smallest eigenvalue of S:    4.639E-05
  number of canonical orbitals.....          208
  Peak memory usage:    835 Mb
  
  end of program onee
   
 Time(onee)  user:        0.0  user+sys:        0.0  wallclock:        1.7
  
  start of program probe
  
  Peak memory usage:    775 Mb
  
  end of program probe
   
 Time(probe)  user:        0.0  user+sys:        0.0  wallclock:        1.5
  
  start of program grid
  
  
   grid     grid set  grid #  grid sym
  ------    --------  ------  --------
  coarse        0        0        1
  medium        2        1        1
  fine          0        0        1
  ultrafine     4        2        1
  charge       -1        3        1
  gradient      4        2        1
  density       0        0        1
  DFT-fine    -11        4        1
  DFT-med.    -10        5        1
  DFT-grad    -12        6        1
  DFT-der2     -8        7        1
  DFT-cphf     -9        8        1
  LMP2-enrg     4        2        1
  LMP2-grad     2        1        1
  DFT-cphf2   -15        9        1
  PBF-dens      0        0        1
  plotting      0        0        1
  
   
  number of gridpoints: 
     atom        S1       O2       O3       N4       N5       H6       H7
  grid # 1      545      735      735      495      496      224      225
  grid # 2      545      735      735      495      496      225      226
  grid # 3       12     1343     1342      232      232     1231     1235
  grid # 4    22280    22280    22280    22280    22280    22280    22280
  grid # 5     2152     2152     2152     2152     2152     2152     2152
  grid # 6    21648    21648    21648    21648    21648    21648    21648
  grid # 7    65628    63040    63040    62394    62394    66806    66806
  grid # 8     3470     7568     7568     8972     8972     9848     9848
  grid # 9      802     1434     1434     3852     3852     2486     2486
   
  number of gridpoints: 
     atom        H8       H9    total
  grid # 1      225      224     3904
  grid # 2      226      225     3908
  grid # 3     1235     1231     8093
  grid # 4    22280    22280   200520
  grid # 5     2152     2152    19368
  grid # 6    21648    21648   194832
  grid # 7    66806    66806   583720
  grid # 8     9848     9848    75942
  grid # 9     2486     2486    21318
   
  Sorting grid blocks by size.
  Peak memory usage:    785 Mb
  
  end of program grid
   
 Time(grid)  user:        1.0  user+sys:        2.0  wallclock:        3.8
  
  start of program rwr
  
  Peak memory usage:    748 Mb
  
  end of program rwr
   
 Time(rwr)  user:        2.0  user+sys:        5.0  wallclock:       10.9
  
  start of program scf
  
  
       i  u  d  i  g                   
       t  p  i  c  r                                 RMS    maximum
       e  d  i  u  i                       energy  density   DIIS  
       r  t  s  t  d       total energy    change  change    error 
  
etot    1  N  N  1  U    -660.46774266097           3.0E-05  7.1E-04
etot    2  N  Y  1  U    -660.46779720222  5.5E-05  7.8E-06  1.4E-04
etot    3  N  Y  1  U    -660.46779929724  2.1E-06  2.3E-06  8.9E-05
etot    4  N  N  1  U    -660.46780005004  7.5E-07  0.0E+00  0.0E+00
  
  
 Energy components, in hartrees:
   (A)  Nuclear repulsion............     284.60251982466
   (E)  Total one-electron terms.....   -1472.93247140971
   (F)    Electron-nuclear...........   -2130.29399452333
   (H)    Kinetic....................     657.36152311362
   (I)  Total two-electron terms.....     527.86215153501
   (J)    Coulomb....................     586.05769429980
   (K)    Exchange+Correlation.......     -58.19554276478
   (L)  Electronic energy............    -945.07031987470  (E+I)
   (M)  -V/T.........................       2.00472537078  (-(A+F+I)/H)
   (N)  Total energy.................    -660.46780005004  (A+L)
  
 SCFE: SCF energy: DFT(m06)      -660.46780005004 hartrees   iterations:   4
  
 
 HOMO energy:    -0.30767
 LUMO energy:    -0.05064
 
  Orbital energies (hartrees): 
   -89.30985   -19.22246   -19.22234   -14.43723   -14.43719    -8.26889
    -6.18658    -6.18652    -6.18511    -1.17147    -1.05492    -0.95681
    -0.93296    -0.67412    -0.57692    -0.55886    -0.53683    -0.52193
    -0.47289    -0.39347    -0.39118    -0.36775    -0.34195    -0.33883
    -0.30767    -0.05064    -0.03538    -0.01959    -0.01295     0.01048
     0.01773     0.02708     0.03554     0.04002     0.06877
 
  Peak memory usage:    855 Mb
  
  end of program scf
   
 Time(scf)  user:       22.0  user+sys:       24.0  wallclock:       26.9
  
  start of program der1a
  
  Peak memory usage:    830 Mb
  
  end of program der1a
   
 Time(der1a)  user:        0.0  user+sys:        0.0  wallclock:        1.6
  
  start of program rwr
  
  Peak memory usage:    749 Mb
  
  end of program rwr
   
 Time(rwr)  user:        0.0  user+sys:        0.0  wallclock:        2.1
  
  start of program der1b
  
   
  forces (hartrees/bohr) : total     
   
 atom  label           x              y              z
 ---- --------   -------------  -------------  -------------
    1 S1          5.249422E-05  -1.022090E-05  -1.868933E-04
    2 O2         -1.149673E-04   1.869990E-05  -5.156884E-04
    3 O3          6.942052E-05  -9.823815E-06  -5.009134E-04
    4 N4         -2.226383E-04  -2.262445E-04  -4.127883E-04
    5 N5          3.441172E-04   2.511381E-04  -3.865233E-04
    6 H6         -2.124214E-05   1.032265E-04  -3.929676E-04
    7 H7          2.974893E-04   7.639805E-05  -5.519239E-04
    8 H8         -4.642210E-04  -1.155702E-04  -5.892633E-04
    9 H9          2.352803E-05  -1.129724E-04  -3.944661E-04
 -------------   -------------  -------------  -------------
     total       -3.601936E-05  -2.536933E-05  -3.931428E-03
   
  Peak memory usage:    860 Mb
  
  end of program der1b
   
 Time(der1b)  user:       16.0  user+sys:       17.0  wallclock:       19.8
  
  start of program geopt
  
  geometry optimization step  5
  energy:            -660.46780005004 hartrees
  
  energy change:           6.9715E-06 *  (  5.0000E-05 )
  gradient maximum:        4.8421E-04 .  (  4.5000E-04 )
  gradient rms:            1.4989E-04 *  (  3.0000E-04 )
  displacement maximum:    2.8947E-03 .  (  1.8000E-03 )
  displacement rms:        1.0082E-03 *  (  1.2000E-03 )
  
  predicted energy change:  -5.4222E-07
  step size:     0.00462
  trust radius:  0.30000
  
  molecular structure not yet converged...
  
  center of mass moved by:
     x:    -1.7025E-04     y:     4.2211E-05     z:     1.0277E-03
  
  new geometry: 
                                   angstroms
  atom               x                 y                 z
  S1           -0.0039386283      0.0012842267      0.1034003018 
  O2            1.2501951648     -0.0790136463      0.7953037764 
  O3           -1.2403966276      0.0899199644      0.8254596364 
  N4           -0.0454385445      1.2645292371     -0.9715739463 
  N5            0.0107806034     -1.2746006708     -0.9572603555 
  H6           -0.4757452961      2.0579612381     -0.5094501735 
  H7            0.8885443909      1.4900229539     -1.2953250654 
  H8           -0.9310937857     -1.5038657468     -1.2547059893 
  H9            0.4527304498     -2.0625396159     -0.4965963055 
   
  nuclear repulsion energy.......     284.594058124 hartrees
  -------------------------------------------------
 /  end of geometry optimization iteration   5   /
 -------------------------------------------------
   
  Peak memory usage:    449 Mb
  
  end of program geopt
   
 Time(geopt)  user:        0.0  user+sys:        0.0  wallclock:        0.3
  
  start of program onee
  
  smallest eigenvalue of S:    4.633E-05
  number of canonical orbitals.....          208
  Peak memory usage:    830 Mb
  
  end of program onee
   
 Time(onee)  user:        0.0  user+sys:        0.0  wallclock:        1.7
  
  start of program probe
  
  Peak memory usage:    770 Mb
  
  end of program probe
   
 Time(probe)  user:        0.0  user+sys:        0.0  wallclock:        1.5
  
  start of program grid
  
  
   grid     grid set  grid #  grid sym
  ------    --------  ------  --------
  coarse        0        0        1
  medium        2        1        1
  fine          0        0        1
  ultrafine     4        2        1
  charge       -1        3        1
  gradient      4        2        1
  density       0        0        1
  DFT-fine    -11        4        1
  DFT-med.    -10        5        1
  DFT-grad    -12        6        1
  DFT-der2     -8        7        1
  DFT-cphf     -9        8        1
  LMP2-enrg     4        2        1
  LMP2-grad     2        1        1
  DFT-cphf2   -15        9        1
  PBF-dens      0        0        1
  plotting      0        0        1
  
   
  number of gridpoints: 
     atom        S1       O2       O3       N4       N5       H6       H7
  grid # 1      545      735      735      496      496      224      225
  grid # 2      545      735      735      496      496      225      226
  grid # 3       12     1343     1343      232      232     1233     1234
  grid # 4    22280    22280    22280    22280    22280    22280    22280
  grid # 5     2152     2152     2152     2152     2152     2152     2152
  grid # 6    21648    21648    21648    21648    21648    21648    21648
  grid # 7    65628    63040    63040    62394    62394    66806    66806
  grid # 8     3470     7568     7568     8972     8972     9848     9848
  grid # 9      802     1434     1434     3852     3852     2486     2486
   
  number of gridpoints: 
     atom        H8       H9    total
  grid # 1      225      224     3905
  grid # 2      226      225     3909
  grid # 3     1235     1232     8096
  grid # 4    22280    22280   200520
  grid # 5     2152     2152    19368
  grid # 6    21648    21648   194832
  grid # 7    66806    66806   583720
  grid # 8     9848     9848    75942
  grid # 9     2486     2486    21318
   
  Sorting grid blocks by size.
  Peak memory usage:    785 Mb
  
  end of program grid
   
 Time(grid)  user:        1.0  user+sys:        2.0  wallclock:        3.8
  
  start of program rwr
  
  Peak memory usage:    753 Mb
  
  end of program rwr
   
 Time(rwr)  user:        1.0  user+sys:        1.0  wallclock:        2.9
  
  start of program scf
  
  
       i  u  d  i  g                   
       t  p  i  c  r                                 RMS    maximum
       e  d  i  u  i                       energy  density   DIIS  
       r  t  s  t  d       total energy    change  change    error 
  
etot    1  N  N  1  U    -660.46780894048           8.5E-06  9.9E-05
etot    2  N  Y  1  U    -660.46781070832  1.8E-06  2.7E-06  6.8E-05
etot    3  N  N  1  U    -660.46781102468  3.2E-07  0.0E+00  0.0E+00
  
  
 Energy components, in hartrees:
   (A)  Nuclear repulsion............     284.59405812415
   (E)  Total one-electron terms.....   -1472.91854221435
   (F)    Electron-nuclear...........   -2130.27880067613
   (H)    Kinetic....................     657.36025846178
   (I)  Total two-electron terms.....     527.85667306552
   (J)    Coulomb....................     586.05176063649
   (K)    Exchange+Correlation.......     -58.19508757097
   (L)  Electronic energy............    -945.06186914884  (E+I)
   (M)  -V/T.........................       2.00472732040  (-(A+F+I)/H)
   (N)  Total energy.................    -660.46781102468  (A+L)
  
 SCFE: SCF energy: DFT(m06)      -660.46781102468 hartrees   iterations:   3
  
 
 HOMO energy:    -0.30764
 LUMO energy:    -0.05065
 
  Orbital energies (hartrees): 
   -89.30973   -19.22275   -19.22249   -14.43701   -14.43695    -8.26879
    -6.18647    -6.18642    -6.18501    -1.17149    -1.05500    -0.95671
    -0.93270    -0.67400    -0.57676    -0.55874    -0.53663    -0.52186
    -0.47295    -0.39351    -0.39114    -0.36780    -0.34203    -0.33875
    -0.30764    -0.05065    -0.03538    -0.01959    -0.01298     0.01049
     0.01770     0.02711     0.03550     0.04000     0.06874
 
  Peak memory usage:    855 Mb
  
  end of program scf
   
 Time(scf)  user:       16.0  user+sys:       17.0  wallclock:       19.4
  
  start of program der1a
  
  Peak memory usage:    830 Mb
  
  end of program der1a
   
 Time(der1a)  user:        0.0  user+sys:        0.0  wallclock:        1.6
  
  start of program rwr
  
  Peak memory usage:    748 Mb
  
  end of program rwr
   
 Time(rwr)  user:        0.0  user+sys:        0.0  wallclock:        2.1
  
  start of program der1b
  
   
  forces (hartrees/bohr) : total     
   
 atom  label           x              y              z
 ---- --------   -------------  -------------  -------------
    1 S1          2.273526E-05   1.657645E-06  -4.442339E-04
    2 O2         -3.969316E-05  -2.282215E-05  -4.733922E-04
    3 O3          1.514199E-05   2.402166E-05  -4.509537E-04
    4 N4          2.694281E-05  -6.328497E-05  -4.160390E-04
    5 N5         -7.502370E-05   7.102022E-06  -4.039866E-04
    6 H6         -2.760054E-05   2.200686E-05  -4.335489E-04
    7 H7          5.036398E-05   1.158510E-05  -4.288423E-04
    8 H8         -3.348343E-06  -2.447013E-06  -4.168224E-04
    9 H9         -1.328575E-05  -1.279253E-06  -4.594817E-04
 -------------   -------------  -------------  -------------
     total       -4.376745E-05  -2.346010E-05  -3.927301E-03
   
  Peak memory usage:    860 Mb
  
  end of program der1b
   
 Time(der1b)  user:       15.0  user+sys:       15.0  wallclock:       18.1
  
  start of program geopt
  
  geometry optimization step  6
  energy:            -660.46781102468 hartrees
  
  energy change:          -1.0975E-05 *  (  5.0000E-05 )
  gradient maximum:        7.3752E-05 #  (  4.5000E-04 )
  gradient rms:            3.6353E-05 #  (  3.0000E-04 )
  displacement maximum:    3.7622E-03 .  (  1.8000E-03 )
  displacement rms:        1.2947E-03 .  (  1.2000E-03 )
  
  predicted energy change:  -3.1603E-07
  step size:     0.00593
  trust radius:  0.30000
  
  ********************************************************
  **           Geometry optimization complete           **
  ********************************************************
  
  Checking the geometry optimization convergence pattern ...
  
  WARNING:
  The energy on the last optimization iteration,
     -660.467811024684
  is higher than the energy on one of the previous iterations,
     -660.467823355724
  The difference between these two energies is 0.008 kcal/mole.
  This situation is symptomatic of potential problems with the
  initial and/or the converged structures.
  
  best                    worst
  ==0=====1=====2=====3=====4==
                      ^        
  
  Convergence category 3: convergence to a non-optimal structure.
  The difference between the final and the minimal
  energies is less than 0.010 kcal/mole.
  Peudospectral approximation:
  Geometry optimization was OK.
  
  center of mass moved by:
     x:     0.0000E+00     y:     0.0000E+00     z:     0.0000E+00
  
  final geometry: 
                                   angstroms
  atom               x                 y                 z
  S1           -0.0039386283      0.0012842267      0.1034003018 
  O2            1.2501951648     -0.0790136463      0.7953037764 
  O3           -1.2403966276      0.0899199644      0.8254596364 
  N4           -0.0454385445      1.2645292371     -0.9715739463 
  N5            0.0107806034     -1.2746006708     -0.9572603555 
  H6           -0.4757452961      2.0579612381     -0.5094501735 
  H7            0.8885443909      1.4900229539     -1.2953250654 
  H8           -0.9310937857     -1.5038657468     -1.2547059893 
  H9            0.4527304498     -2.0625396159     -0.4965963055 
   
  principal moments of inertia:
        amu*angstrom^2:      101.39140      110.18412      111.14456
                g*cm^2: 1.68364362E-38 1.82965008E-38 1.84559862E-38
   
  rotational constants:
               cm^(-1):      0.16626291      0.15299509      0.15167300
                   GHz:      4.98443657      4.58667746      4.54704221
   
  nuclear repulsion energy.......     284.594058124 hartrees
  -------------------------------------------------
 /  end of geometry optimization iteration   6   /
 -------------------------------------------------
   
  Peak memory usage:    449 Mb
  
  end of program geopt
   
 Time(geopt)  user:        0.0  user+sys:        0.0  wallclock:        0.5
  
  start of program ch
  
  Moments from quantum mechanical wavefunction:
  Dipole Moments  (Debye)
     X=    -0.0320     Y=    -0.0155     Z=    -2.6284  Tot=     2.6287
  
  gridpoints used for charge fit         7847
    out of a possible maximum of         8096
  
   Electrostatic potential fitting constrained to reproduce
     total charge:                yes
     dipole moment:               yes
     traceless quadrupole moment: no 
     traceless octapole moment:   no 
  
  Atomic charges from electrostatic potential: 
   
 Atom       S1           O2           O3           N4           N5      
 Charge    0.94333     -0.46803     -0.46819     -0.70333     -0.70336
   
 Atom       H6           H7           H8           H9      
 Charge    0.35090      0.34889      0.34889      0.35089
  
  sum of atomic charges:     0.000000
   
 RMS Error   1.25E-03 hartrees
 
  
  Moments from electrostatic potential charges:
  Dipole Moments  (Debye)
     X=    -0.0320     Y=    -0.0155     Z=    -2.6284  Tot=     2.6287
  
  Peak memory usage:    757 Mb
  
  end of program ch
   
 Time(ch)  user:        0.0  user+sys:        0.0  wallclock:        2.4
  
  start of program cutabab2
  
  Peak memory usage:    553 Mb
  
  end of program cutabab2
   
 Time(cutabab2)  user:        1.0  user+sys:        1.0  wallclock:        1.4
  
  start of program der2a
  
  Peak memory usage:    600 Mb
  
  end of program der2a
   
 Time(der2a)  user:        0.0  user+sys:        0.0  wallclock:        1.0
  
  start of program der2b
  
  Peak memory usage:    963 Mb
  
  end of program der2b
   
 Time(der2b)  user:      299.0  user+sys:      318.0  wallclock:      320.5
  
  start of program der2nda
  
 
  Peak memory usage:    599 Mb
  
  end of program der2nda
   
 Time(der2nda)  user:        0.0  user+sys:        0.0  wallclock:        0.9
  
  start of program der2ndb
  
  Peak memory usage:    798 Mb
  
  end of program der2ndb
   
 Time(der2ndb)  user:      725.0  user+sys:      765.0  wallclock:      768.9
  
  start of program rwr
  
  Peak memory usage:    753 Mb
  
  end of program rwr
   
 Time(rwr)  user:        1.0  user+sys:        1.0  wallclock:        2.6
  
  start of program cphfa
  
       1  vectors produced in CPHF
  
     v    i  j  k  i  g
     e    t  c  c  c  r
     c    e  o  o  u  i
     t    r  r  r  t  d       RMS  
  
     1    1  0  0  6  M     1.6E-02
     1    2  0  0  6  M     1.0E-03
     1    3  0  0  6  M     3.2E-04
     1    4  0  0  6  M     1.2E-04
     1    5  0  0  6  M     3.7E-05
  
  
  Atomic Polar Tensors (au): Total
  =========================
  
  APT for atom S1      
  --------------------------------------
        2.2125      -0.0373      -0.0007
       -0.0583       2.4155      -0.0010
       -0.0005      -0.0012       2.1351
  --------------------------------------
  
  APT for atom O2      
  --------------------------------------
       -1.0588       0.0458      -0.3755
        0.0483      -0.6843       0.0624
       -0.2569       0.0279      -0.7781
  --------------------------------------
  
  APT for atom O3      
  --------------------------------------
       -1.0431       0.0496       0.3815
        0.0498      -0.6856      -0.0648
        0.2629      -0.0302      -0.7931
  --------------------------------------
  
  APT for atom N4      
  --------------------------------------
       -0.4331       0.0399      -0.0565
        0.0090      -0.8413       0.2959
       -0.0597       0.3735      -0.7420
  --------------------------------------
  
  APT for atom N5      
  --------------------------------------
       -0.4304       0.0311       0.0482
        0.0023      -0.8493      -0.2948
        0.0518      -0.3732      -0.7369
  --------------------------------------
  
  APT for atom H6      
  --------------------------------------
        0.2329      -0.0793       0.0658
       -0.0228       0.1763      -0.0144
        0.0472      -0.0277       0.1787
  --------------------------------------
  
  APT for atom H7      
  --------------------------------------
        0.1447       0.0147       0.0069
       -0.0021       0.1459       0.0374
       -0.0016      -0.0156       0.2774
  --------------------------------------
  
  APT for atom H8      
  --------------------------------------
        0.1447       0.0150      -0.0038
       -0.0030       0.1456      -0.0358
        0.0050       0.0168       0.2777
  --------------------------------------
  
  APT for atom H9      
  --------------------------------------
        0.2301      -0.0793      -0.0662
       -0.0230       0.1768       0.0150
       -0.0482       0.0298       0.1811
  --------------------------------------
  
  Peak memory usage:    860 Mb
  
  end of program cphfa
   
 Time(cphfa)  user:      275.0  user+sys:      282.0  wallclock:      284.4
  
  start of program freq
  
   
  harmonic frequencies in cm**-1, reduced masses in amu,
  force constants in mDyne/A, and
  normal modes in cartesian coordinates:
  IR intensities in km/mol
  
  frequencies       193.36   229.79   348.60   434.57   437.36   514.86
  intensities        24.99    60.93     6.68     4.87     0.45     2.09
  reduc. mass         0.78     0.25     2.65     2.57     1.29     3.74
  force const         0.02     0.01     0.19     0.29     0.15     0.58
    S1       X    -0.00004  0.01034  0.00006  0.07713 -0.00129  0.00096
    S1       Y    -0.00013 -0.00112  0.00002  0.00295 -0.00019  0.00070
    S1       Z    -0.01787  0.00028  0.00680 -0.00129 -0.01956  0.07507
    O2       X     0.02238  0.01006  0.01282  0.02044  0.02258  0.09770
    O2       Y     0.01009  0.00599  0.12761 -0.00845 -0.00763 -0.01271
    O2       Z    -0.05560 -0.00608 -0.00380  0.10362 -0.06195 -0.08686
    O3       X    -0.02334  0.01130 -0.01287  0.01721 -0.02456 -0.09988
    O3       Y    -0.01048  0.00679 -0.12760 -0.00965  0.00728  0.01093
    O3       Z    -0.05454  0.00825 -0.00185 -0.10565 -0.05851 -0.08451
    N4       X     0.05235  0.00590  0.09275 -0.08789 -0.03781 -0.00134
    N4       Y     0.06328 -0.01704 -0.00251  0.00359  0.07789 -0.07941
    N4       Z     0.05744 -0.00717 -0.01046  0.00697  0.07921  0.02528
    N5       X    -0.05054  0.00823 -0.09290 -0.08708  0.04225  0.00201
    N5       Y    -0.06322 -0.01405  0.00237  0.00130 -0.07711  0.07995
    N5       Z     0.05975  0.00447 -0.00813 -0.00255  0.07924  0.02471
    H6       X    -0.27270 -0.46641  0.24990 -0.11261  0.27682 -0.05244
    H6       Y    -0.07458 -0.17054  0.07007 -0.04399  0.11186 -0.02392
    H6       Z    -0.01191 -0.19054  0.01661  0.06495  0.31988 -0.12879
    H7       X     0.09859  0.03888  0.14980 -0.19335 -0.08015 -0.02166
    H7       Y     0.29755  0.29922 -0.14412  0.10636 -0.07874 -0.11658
    H7       Z     0.35880  0.31613  0.04540 -0.21706 -0.15441 -0.04911
    H8       X    -0.08797  0.03456 -0.14830 -0.18580  0.08152  0.02024
    H8       Y    -0.28091  0.30655  0.14531  0.11088  0.07509  0.11600
    H8       Z     0.35095 -0.33473  0.04617  0.21616 -0.16479 -0.04983
    H9       X     0.25327 -0.47055 -0.25037 -0.12162 -0.26724  0.04871
    H9       Y     0.06747 -0.17049 -0.07022 -0.04773 -0.10753  0.02305
    H9       Z    -0.01130  0.20346  0.02416 -0.05242  0.33019 -0.12860
  
  frequencies       522.49   680.20   722.62   823.53   928.28  1105.70
  intensities        73.49   106.45   289.10     3.17   150.37     1.09
  reduc. mass         2.96     1.55     1.36     1.85     6.10     0.31
  force const         0.48     0.42     0.42     0.74     3.09     0.22
    S1       X     0.00043  0.00857  0.00061  0.00071 -0.01320 -0.00001
    S1       Y     0.07433 -0.03923  0.00061  0.00025 -0.11324 -0.00022
    S1       Z    -0.00070  0.00041  0.05067  0.05687  0.00083 -0.00301
    O2       X    -0.00585  0.01108  0.04507  0.04050 -0.00501 -0.03950
    O2       Y    -0.11765 -0.00697 -0.02027  0.00395  0.02176 -0.00958
    O2       Z    -0.00910  0.01443  0.00278  0.01603 -0.01149 -0.01803
    O3       X    -0.00495  0.01018 -0.04510 -0.04006 -0.00474  0.03960
    O3       Y    -0.11764 -0.00684  0.02030 -0.00373  0.02191  0.00950
    O3       Z     0.01114 -0.01466  0.00377  0.01706  0.01136 -0.01969
    N4       X     0.00728 -0.04505 -0.05048  0.01923  0.03199 -0.05312
    N4       Y     0.04148  0.04530  0.02764  0.11691  0.08881  0.02996
    N4       Z    -0.07956 -0.10991 -0.10154 -0.04652 -0.03272  0.03022
    N5       X     0.00924 -0.04165  0.04834 -0.02042  0.03284  0.05302
    N5       Y     0.04183  0.04658 -0.02947 -0.11730  0.08923 -0.02927
    N5       Z     0.07879  0.10932 -0.10372 -0.04445  0.03078  0.02889
    H6       X    -0.04391  0.19738  0.19428 -0.09146 -0.09855  0.02244
    H6       Y     0.09660 -0.01834  0.00274  0.16931  0.08397  0.27747
    H6       Z    -0.22498  0.27160  0.21569 -0.25516 -0.16793 -0.34189
    H7       X     0.00396  0.10971  0.11946 -0.05989 -0.07045  0.12844
    H7       Y     0.01121  0.11538  0.05708  0.08442  0.12609 -0.34500
    H7       Z    -0.11106  0.32659  0.34690 -0.27684 -0.27403  0.27612
    H8       X     0.00668  0.10014 -0.11190  0.05308 -0.06371 -0.12009
    H8       Y     0.01193  0.11104 -0.05428 -0.08747  0.12934  0.34386
    H8       Z     0.11082 -0.32616  0.35421 -0.27768  0.27478  0.27151
    H9       X    -0.03874  0.18824 -0.19099  0.08531 -0.09457 -0.03066
    H9       Y     0.09896 -0.02124  0.00005 -0.17231  0.08614 -0.27750
    H9       Z     0.22573 -0.27334  0.22363 -0.25567  0.16982 -0.33274
  
  frequencies      1121.00  1215.88  1428.38  1562.43  1574.38  3493.10
  intensities         9.02   188.57   299.43    85.67     8.02    62.37
  reduc. mass         0.34     5.97     8.74     0.27     0.26     0.30
  force const         0.25     5.20    10.50     0.39     0.38     2.12
    S1       X     0.00074 -0.00116  0.11963 -0.01023  0.00018 -0.00082
    S1       Y    -0.02649 -0.00053 -0.01158  0.00075  0.00009 -0.00049
    S1       Z     0.00014 -0.09172 -0.00144  0.00008  0.01573  0.00019
    O2       X     0.04139  0.12302 -0.10991  0.00391 -0.00867  0.00039
    O2       Y     0.00877 -0.00853  0.00805  0.00092  0.00083  0.00047
    O2       Z     0.03728  0.07692 -0.05614  0.00012 -0.00629  0.00003
    O3       X     0.03982 -0.12106 -0.10851  0.00386  0.00851  0.00019
    O3       Y     0.00821  0.00945  0.00873  0.00092 -0.00090  0.00051
    O3       Z    -0.03809  0.07987  0.05879 -0.00019 -0.00649  0.00018
    N4       X    -0.05533 -0.00685 -0.01612 -0.00762  0.01270 -0.01223
    N4       Y     0.02253  0.00190  0.00152 -0.05451  0.04827 -0.02491
    N4       Z     0.02482  0.01549  0.00401  0.01984 -0.02255 -0.00058
    N5       X    -0.05669  0.00726 -0.01622 -0.00804 -0.01330 -0.02008
    N5       Y     0.02267 -0.00173  0.00149 -0.05450 -0.04880 -0.04092
    N5       Z    -0.02409  0.01535 -0.00362 -0.01888 -0.02174  0.00180
    H6       X     0.01272 -0.03357  0.03570  0.32501 -0.32713 -0.16119
    H6       Y     0.27381  0.02001  0.07591  0.26164 -0.28381  0.27050
    H6       Z    -0.36024 -0.04895 -0.07655 -0.19654  0.21811  0.15001
    H7       X     0.10694  0.03559  0.02458 -0.11689  0.11084  0.33784
    H7       Y    -0.30272 -0.12662 -0.04625  0.46999 -0.44290  0.07641
    H7       Z     0.25011  0.04604  0.06775  0.04217 -0.05186 -0.13090
    H8       X     0.10242 -0.03449  0.02290 -0.11746 -0.11277  0.55869
    H8       Y    -0.31063  0.12734 -0.04716  0.46730  0.44456  0.12761
    H8       Z    -0.25299  0.04551 -0.06782 -0.04456 -0.05459  0.19882
    H9       X     0.02213  0.03233  0.03757  0.32817  0.33407 -0.26983
    H9       Y     0.28213 -0.02078  0.07682  0.26250  0.28765  0.43990
    H9       Z     0.36142 -0.04978  0.07474  0.18415  0.20735 -0.24404
  
  frequencies      3494.81  3599.17  3600.29
  intensities         7.72    23.55    69.65
  reduc. mass         0.30     0.38     0.38
  force const         2.12     2.92     2.92
    S1       X     0.00021  0.00021  0.00053
    S1       Y     0.00012 -0.00012 -0.00031
    S1       Z     0.00072  0.00035 -0.00014
    O2       X     0.00035 -0.00025 -0.00021
    O2       Y    -0.00020  0.00006  0.00003
    O2       Z     0.00046 -0.00015 -0.00018
    O3       X    -0.00048  0.00004 -0.00032
    O3       Y    -0.00003 -0.00002  0.00006
    O3       Z     0.00043  0.00000  0.00024
    N4       X     0.02006 -0.02590  0.05824
    N4       Y     0.04116  0.01172 -0.02585
    N4       Z     0.00072  0.01494 -0.03370
    N5       X    -0.01228  0.05902  0.02631
    N5       Y    -0.02521 -0.02566 -0.01122
    N5       Z     0.00097  0.03249  0.01453
    H6       X     0.26401  0.11917 -0.26889
    H6       Y    -0.44393 -0.22246  0.50074
    H6       Z    -0.24597 -0.12428  0.27927
    H7       X    -0.55234  0.24385 -0.54632
    H7       Y    -0.12471  0.06121 -0.13742
    H7       Z     0.21375 -0.08666  0.19357
    H8       X     0.34055 -0.55068 -0.24462
    H8       Y     0.07765 -0.13950 -0.06209
    H8       Z     0.12103 -0.17817 -0.07889
    H9       X    -0.16479 -0.27585 -0.12339
    H9       Y     0.26918  0.49762  0.22208
    H9       Z    -0.14921 -0.27867 -0.12415
  
  Number of imaginary frequencies:   0
   
  Writing vibrational animation data to c2.vib
  Writing vibrational spectrum data to c2_vib.spm
  
  Thermochemical properties at    1.0000 atm
  
  rotational symmetry number:  1

  rotational temperatures (K):      0.239215      0.220126      0.218223
   
  vibrational temperatures:
       mode:      1        2        3        4        5        6
  temp. (K):   278.21   330.62   501.56   625.24   629.26   740.77
   
       mode:      7        8        9       10       11       12
  temp. (K):   751.75   978.66  1039.69  1184.87  1335.59  1590.85
   
       mode:     13       14       15       16       17       18
  temp. (K):  1612.86  1749.38  2055.12  2247.99  2265.18  5025.79
   
       mode:     19       20       21
  temp. (K):  5028.25  5178.40  5180.01
   
   
  Thermodynamic properties calculated assuming an ideal gas

  In the table below, the units for temperature
  are kelvins, the units for U, H, and G are
  kcal/mol and the units for Cv and S are cal/(mol K)

  The zero point energy (ZPE):     40.072 kcal/mol
  is not included in U, H, or G in the table below


  T =   298.15 K
   
              U         Cv          S          H          G        ln(Q)
          ---------  ---------  ---------  ---------  ---------  ---------
  trans.      0.889      2.981     39.596      1.481    -10.324   17.42564
    rot.      0.889      2.981     25.539      0.889     -6.726   11.35185
    vib.      1.785     14.099      9.268      1.785     -0.978    1.65077
   elec.      0.000      0.000      0.000      0.000      0.000    0.00000
   total      3.563     20.061     74.404      4.155    -18.028   30.42826
   
  Total internal energy, Utot (SCFE + ZPE + U):    -660.398274 hartrees
              Total enthalpy, Htot (Utot + pV):    -660.397330 hartrees
    Total Gibbs free energy, Gtot (Htot - T*S):    -660.432682 hartrees
   
  Peak memory usage:    449 Mb
  
  end of program freq
   
 Time(freq)  user:        0.0  user+sys:        0.0  wallclock:        0.6
  
  start of program post
  
  Peak memory usage:    488 Mb
  
  end of program post
   
 Time(post)  user:        0.0  user+sys:        0.0  wallclock:        0.9

 *********************************** NBO 6.0 ***********************************
             N A T U R A L   A T O M I C   O R B I T A L   A N D
          N A T U R A L   B O N D   O R B I T A L   A N A L Y S I S
 ************************* Schrodinger,  Inc. (100193) *************************
  (c) Copyright 1996-2013 Board of Regents of the University of Wisconsin System
      on behalf of the Theoretical Chemistry Institute.  All rights reserved.

          Cite this program as:

          NBO 6.0.  E. D. Glendening, J. K. Badenhoop, A. E. Reed,
          J. E. Carpenter, J. A. Bohmann, C. M. Morales, C. R. Landis,
          and F. Weinhold (Theoretical Chemistry Institute, University
          of Wisconsin, Madison, WI, 2013); http://nbo6.chem.wisc.edu/

       /NRT    / : Natural Resonance Theory Analysis
       /PRINT  / : Print level set to 3

 Filename set to FILE

 Job title:  c2:  Input generated by Jaguar v8.1


 Atom distance matrix: (Angstroms)

     Atom    1       2       3       4       5       6       7       8       9
     ---- ------  ------  ------  ------  ------  ------  ------  ------  ------
   1.  S  0.0000  1.4346  1.4346  1.6592  1.6592  2.1973  2.2292  2.2292  2.1973
   2.  O  1.4346  0.0000  2.4965  2.5701  2.4570  3.0410  2.6388  3.3152  2.4979
   3.  O  1.4346  2.4965  0.0000  2.4570  2.5701  2.4980  3.3152  2.6387  3.0410
   4.  N  1.6592  2.5701  2.4570  0.0000  2.5398  1.0140  1.0139  2.9204  3.3975
   5.  N  1.6592  2.4570  2.5701  2.5398  0.0000  3.3975  2.9203  1.0140  1.0141
   6.  H  2.1973  3.0410  2.4980  1.0140  3.3975  0.0000  1.6738  3.6673  4.2238
   7.  H  2.2292  2.6388  3.3152  1.0139  2.9203  1.6738  0.0000  3.5037  3.6672
   8.  H  2.2292  3.3152  2.6387  2.9204  1.0140  3.6673  3.5037  0.0000  1.6739
   9.  H  2.1973  2.4979  3.0410  3.3975  1.0141  4.2238  3.6672  1.6739  0.0000


 NATURAL POPULATIONS:  Natural atomic orbital occupancies

  NAO Atom No lang   Type(AO)    Occupancy      Energy
 ---------------------------------------------------------
   1    S  1  s      Cor( 1s)     2.00000     -87.95253
   2    S  1  s      Cor( 2s)     1.99957      -9.39139
   3    S  1  s      Val( 3s)     1.02399      -0.55403
   4    S  1  s      Ryd( 4s)     0.00338       1.07184
   5    S  1  s      Ryd( 5s)     0.00005       2.00337
   6    S  1  s      Ryd( 6s)     0.00002       2.22313
   7    S  1  s      Ryd( 7s)     0.00001       3.08656
   8    S  1  s      Ryd( 9s)     0.00000       2.76742
   9    S  1  s      Ryd( 8s)     0.00000       5.76102
  10    S  1  px     Cor( 2p)     1.99985      -6.16890
  11    S  1  px     Val( 3p)     0.73385      -0.13867
  12    S  1  px     Ryd( 4p)     0.01446       1.22708
  13    S  1  px     Ryd( 5p)     0.00004       2.69813
  14    S  1  px     Ryd( 6p)     0.00003       0.62654
  15    S  1  py     Cor( 2p)     1.99994      -6.17478
  16    S  1  py     Val( 3p)     0.86201      -0.20688
  17    S  1  py     Ryd( 4p)     0.00420       1.23834
  18    S  1  py     Ryd( 5p)     0.00007       1.07757
  19    S  1  py     Ryd( 6p)     0.00003       0.72660
  20    S  1  pz     Cor( 2p)     1.99992      -6.17339
  21    S  1  pz     Val( 3p)     0.79578      -0.18090
  22    S  1  pz     Ryd( 4p)     0.00951       1.22884
  23    S  1  pz     Ryd( 5p)     0.00015       2.38346
  24    S  1  pz     Ryd( 6p)     0.00005       0.94760
  25    S  1  dxy    Ryd( 3d)     0.04003       0.86227
  26    S  1  dxy    Ryd( 4d)     0.00036       0.77696
  27    S  1  dxy    Ryd( 5d)     0.00003       2.18948
  28    S  1  dxz    Ryd( 3d)     0.03317       1.09530
  29    S  1  dxz    Ryd( 5d)     0.00030       0.89936
  30    S  1  dxz    Ryd( 4d)     0.00039       1.81857
  31    S  1  dyz    Ryd( 3d)     0.03579       1.01209
  32    S  1  dyz    Ryd( 4d)     0.00022       0.54197
  33    S  1  dyz    Ryd( 5d)     0.00002       1.92548
  34    S  1  dx2y2  Ryd( 3d)     0.03415       1.07500
  35    S  1  dx2y2  Ryd( 4d)     0.00033       1.02845
  36    S  1  dx2y2  Ryd( 5d)     0.00028       1.95961
  37    S  1  dz2    Ryd( 3d)     0.03123       0.84899
  38    S  1  dz2    Ryd( 4d)     0.00036       0.73775
  39    S  1  dz2    Ryd( 5d)     0.00014       2.10960

  40    O  2  s      Cor( 1s)     1.99984     -18.97668
  41    O  2  s      Val( 2s)     1.82001      -1.03907
  42    O  2  s      Ryd( 3s)     0.00076       2.60744
  43    O  2  s      Ryd( 4s)     0.00013       6.67296
  44    O  2  s      Ryd( 5s)     0.00007       3.83167
  45    O  2  s      Ryd( 6s)     0.00002       2.93796
  46    O  2  s      Ryd( 7s)     0.00000       6.18545
  47    O  2  s      Ryd( 8s)     0.00000      13.02725
  48    O  2  px     Val( 2p)     1.56283      -0.34953
  49    O  2  px     Ryd( 3p)     0.00063       0.84877
  50    O  2  px     Ryd( 4p)     0.00020       0.73971
  51    O  2  px     Ryd( 5p)     0.00010       4.26180
  52    O  2  py     Val( 2p)     1.79103      -0.31649
  53    O  2  py     Ryd( 3p)     0.00106       0.73404
  54    O  2  py     Ryd( 4p)     0.00007       0.56426
  55    O  2  py     Ryd( 5p)     0.00000       3.98474
  56    O  2  pz     Val( 2p)     1.71665      -0.32335
  57    O  2  pz     Ryd( 3p)     0.00071       0.75154
  58    O  2  pz     Ryd( 4p)     0.00008       0.69595
  59    O  2  pz     Ryd( 5p)     0.00003       4.07829
  60    O  2  dxy    Ryd( 3d)     0.00904       1.39328
  61    O  2  dxy    Ryd( 5d)     0.00001       1.51542
  62    O  2  dxy    Ryd( 4d)     0.00001       6.67106
  63    O  2  dxz    Ryd( 3d)     0.01057       1.54475
  64    O  2  dxz    Ryd( 4d)     0.00010       2.00234
  65    O  2  dxz    Ryd( 5d)     0.00001       6.75001
  66    O  2  dyz    Ryd( 3d)     0.00318       1.26833
  67    O  2  dyz    Ryd( 4d)     0.00002       1.56105
  68    O  2  dyz    Ryd( 5d)     0.00001       6.71497
  69    O  2  dx2y2  Ryd( 3d)     0.00769       1.44481
  70    O  2  dx2y2  Ryd( 4d)     0.00005       1.77977
  71    O  2  dx2y2  Ryd( 5d)     0.00001       6.74172
  72    O  2  dz2    Ryd( 3d)     0.00775       1.33242
  73    O  2  dz2    Ryd( 4d)     0.00003       1.55005
  74    O  2  dz2    Ryd( 5d)     0.00001       6.67826

  75    O  3  s      Cor( 1s)     1.99984     -18.97642
  76    O  3  s      Val( 2s)     1.82002      -1.03894
  77    O  3  s      Ryd( 3s)     0.00076       2.60698
  78    O  3  s      Ryd( 4s)     0.00013       6.67364
  79    O  3  s      Ryd( 5s)     0.00007       3.83097
  80    O  3  s      Ryd( 6s)     0.00002       2.93803
  81    O  3  s      Ryd( 7s)     0.00000       6.16478
  82    O  3  s      Ryd( 8s)     0.00000      13.04996
  83    O  3  px     Val( 2p)     1.56926      -0.34841
  84    O  3  px     Ryd( 3p)     0.00064       0.85026
  85    O  3  px     Ryd( 4p)     0.00020       0.73541
  86    O  3  px     Ryd( 5p)     0.00009       4.25212
  87    O  3  py     Val( 2p)     1.79076      -0.31641
  88    O  3  py     Ryd( 3p)     0.00106       0.73389
  89    O  3  py     Ryd( 4p)     0.00007       0.56374
  90    O  3  py     Ryd( 5p)     0.00000       3.98501
  91    O  3  pz     Val( 2p)     1.71063      -0.32419
  92    O  3  pz     Ryd( 3p)     0.00071       0.75022
  93    O  3  pz     Ryd( 4p)     0.00008       0.70085
  94    O  3  pz     Ryd( 5p)     0.00003       4.08819
  95    O  3  dxy    Ryd( 3d)     0.00878       1.38794
  96    O  3  dxy    Ryd( 5d)     0.00001       1.51747
  97    O  3  dxy    Ryd( 4d)     0.00001       6.66951
  98    O  3  dxz    Ryd( 3d)     0.01056       1.54697
  99    O  3  dxz    Ryd( 4d)     0.00011       2.02905
 100    O  3  dxz    Ryd( 5d)     0.00001       6.75267
 101    O  3  dyz    Ryd( 3d)     0.00343       1.27438
 102    O  3  dyz    Ryd( 4d)     0.00002       1.56059
 103    O  3  dyz    Ryd( 5d)     0.00001       6.71673
 104    O  3  dx2y2  Ryd( 3d)     0.00746       1.43618
 105    O  3  dx2y2  Ryd( 4d)     0.00005       1.76365
 106    O  3  dx2y2  Ryd( 5d)     0.00001       6.73943
 107    O  3  dz2    Ryd( 3d)     0.00799       1.33863
 108    O  3  dz2    Ryd( 4d)     0.00003       1.53836
 109    O  3  dz2    Ryd( 5d)     0.00001       6.67798

 110    N  4  s      Cor( 1s)     1.99962     -14.27669
 111    N  4  s      Val( 2s)     1.52183      -0.72134
 112    N  4  s      Ryd( 3s)     0.00150       1.59145
 113    N  4  s      Ryd( 4s)     0.00010       2.08403
 114    N  4  s      Ryd( 5s)     0.00003       2.92161
[...]
                                             deloc  34:  0.03  0.00  0.01  0.03

  14. LP ( 2) O 3             7.68 -0.79 -5.09  9.25    10.34 -0.89 -6.76 12.39
                                             deloc  28: -0.95 -0.01  0.63  1.14
                                             deloc  26: -0.33 -0.06  0.16  0.37
                                             deloc  29: -0.26  0.06  0.26  0.37
                                             deloc  37: -0.26  0.03  0.19  0.33
                                             deloc  35: -0.25  0.10 -0.01  0.27
                                             deloc  34: -0.18  0.15  0.06  0.24
                                             deloc  36: -0.14 -0.08  0.16  0.23
                                             deloc  31: -0.09 -0.08  0.12  0.17
                                             deloc 124: -0.05 -0.02  0.06  0.08
                                             deloc  11: -0.05  0.00  0.01  0.05
                                             deloc  38: -0.04 -0.04  0.02  0.05
                                             deloc  27: -0.01  0.02 -0.01  0.02

  15. LP ( 3) O 3             7.58 -0.48 -5.09  9.15    10.36 -0.79 -6.77 12.41
                                             deloc  26: -0.92  0.17  0.50  1.06
                                             deloc  29: -0.88  0.19  0.56  1.06
                                             deloc  34: -0.45 -0.09  0.14  0.48
                                             deloc  36: -0.03  0.09  0.23  0.24
                                             deloc  35: -0.20 -0.08  0.09  0.23
                                             deloc  37: -0.13  0.04  0.10  0.17
                                             deloc  11: -0.09  0.01  0.02  0.09
                                             deloc  39: -0.01 -0.01 -0.02  0.03
                                             deloc 155: -0.02  0.00  0.00  0.02

  16. LP ( 1) N 4             3.34 -8.37 11.36 14.50     3.56 -9.28 12.45 15.93
                                             deloc  26: -0.15  0.33 -0.35  0.50
                                             deloc  38:  0.03  0.15 -0.23  0.28
                                             deloc  29: -0.05  0.10 -0.19  0.22
                                             deloc  15:  0.02  0.06 -0.10  0.12
                                             deloc  35: -0.03  0.02 -0.10  0.10
                                             deloc  37: -0.04  0.05 -0.04  0.08
                                             deloc  33:  0.00  0.07  0.00  0.07
                                             deloc  36: -0.02  0.07 -0.02  0.07
                                             deloc 184:  0.02 -0.05 -0.04  0.07
                                             deloc  30: -0.03  0.03  0.01  0.05
                                             deloc 196: -0.04 -0.01  0.01  0.04
                                             deloc  31:  0.03  0.00 -0.03  0.04
                                             deloc  28:  0.00 -0.03  0.02  0.03
                                             deloc  42:  0.01  0.01  0.02  0.03
                                             deloc  34:  0.02  0.01 -0.01  0.03
                                             deloc 156:  0.00  0.02 -0.01  0.03
                                             deloc  11: -0.01  0.02 -0.01  0.02

  17. LP ( 1) N 5            -2.97  8.50 11.34 14.47    -3.16  9.42 12.42 15.90
                                             deloc  27:  0.14 -0.34 -0.35  0.50
                                             deloc  38: -0.04 -0.15 -0.23  0.28
                                             deloc  28:  0.05 -0.10 -0.19  0.22
                                             deloc  12: -0.03 -0.06 -0.10  0.12
                                             deloc  35:  0.03 -0.02 -0.10  0.10
                                             deloc  37:  0.04 -0.05 -0.05  0.08
                                             deloc  30:  0.00 -0.07  0.00  0.07
                                             deloc  36:  0.02 -0.07 -0.02  0.07
                                             deloc 220: -0.02  0.05 -0.04  0.07
                                             deloc  33:  0.03 -0.03  0.01  0.05
                                             deloc 208:  0.04  0.01  0.01  0.04
                                             deloc  32: -0.03  0.00 -0.03  0.04
                                             deloc  29:  0.00  0.03  0.02  0.03
                                             deloc  42: -0.01 -0.01  0.02  0.03
                                             deloc  34: -0.02 -0.01 -0.01  0.03
                                             deloc 126:  0.00 -0.02 -0.01  0.03
                                             deloc  14:  0.01 -0.02 -0.01  0.02

  18. BD ( 1) S 1- O 2       -7.58  0.45 -5.09  9.14    -7.72  0.45 -5.29  9.37
                                             deloc  29: -0.01  0.25  0.17  0.30
                                             deloc  28: -0.03 -0.25  0.17  0.30
                                             deloc  27:  0.12 -0.01 -0.13  0.18
                                             deloc  12:  0.01  0.01 -0.02  0.03
                                             deloc  32:  0.01  0.01  0.01  0.02

  19. BD ( 1) S 1- O 3        7.54 -0.53 -5.28  9.22     7.68 -0.52 -5.48  9.45
                                             deloc  28:  0.02 -0.25  0.17  0.30
                                             deloc  29:  0.03  0.25  0.16  0.30
                                             deloc  26: -0.12  0.01 -0.13  0.18
                                             deloc  15: -0.01 -0.01 -0.02  0.03
                                             deloc  31: -0.01 -0.01  0.01  0.02

  20. BD ( 1) S 1- N 4       -0.22 -7.71  5.23  9.32    -0.20 -7.89  5.37  9.55
                                             deloc  27:  0.24 -0.05 -0.14  0.29
                                             deloc  29:  0.01  0.21  0.19  0.28
                                             deloc  26: -0.24 -0.04 -0.12  0.27
                                             deloc  31: -0.07  0.00  0.01  0.07
                                             deloc  30:  0.03 -0.04 -0.04  0.07
                                             deloc  33:  0.00  0.03  0.01  0.03

  21. BD ( 1) S 1- N 5        0.44  7.76  5.13  9.31     0.42  7.94  5.27  9.54
                                             deloc  26: -0.25  0.05 -0.14  0.29
                                             deloc  28:  0.00 -0.21  0.19  0.28
                                             deloc  27:  0.24  0.04 -0.12  0.27
                                             deloc  32:  0.07  0.00  0.01  0.07
                                             deloc  33: -0.03  0.04 -0.04  0.07
                                             deloc  30:  0.00 -0.03  0.01  0.03

  22. BD ( 1) N 4- H 6        2.71-15.16  5.35 16.30     2.70-15.42  5.53 16.60
                                             deloc  29:  0.00  0.10 -0.05  0.11
                                             deloc  28:  0.00  0.05 -0.05  0.07
                                             deloc  38:  0.00  0.07 -0.03  0.07
                                             deloc  27: -0.02  0.04 -0.02  0.05
                                             deloc  16:  0.03  0.00  0.02  0.04
                                             deloc  36: -0.01  0.01 -0.01  0.02

  23. BD ( 1) N 4- H 7       -5.08-11.88  9.94 16.30    -5.09-12.13 10.08 16.57
                                             deloc  27:  0.03  0.08 -0.09  0.12
                                             deloc  28: -0.01  0.06 -0.05  0.08
                                             deloc  36:  0.01  0.03 -0.03  0.04
                                             deloc  26:  0.02  0.03 -0.02  0.04
                                             deloc  39:  0.00 -0.03  0.02  0.03
                                             deloc  16:  0.00  0.01  0.03  0.03
                                             deloc  37:  0.01  0.02 -0.02  0.03
                                             deloc 185: -0.02  0.02  0.01  0.02

  24. BD ( 1) N 5- H 8        5.41 11.99  9.66 16.32     5.43 12.24  9.81 16.59
                                             deloc  26: -0.03 -0.08 -0.09  0.12
                                             deloc  29:  0.01 -0.06 -0.05  0.08
                                             deloc  36: -0.01 -0.03 -0.03  0.04
                                             deloc  27: -0.02 -0.03 -0.02  0.04
                                             deloc  39:  0.00  0.03  0.02  0.03
                                             deloc  17:  0.00 -0.01  0.03  0.03
                                             deloc  37: -0.01 -0.02 -0.02  0.03
                                             deloc 221:  0.02 -0.02  0.01  0.02

  25. BD ( 1) N 5- H 9       -2.49 15.21  5.23 16.28    -2.47 15.47  5.41 16.58
                                             deloc  28:  0.00 -0.10 -0.05  0.11
                                             deloc  29:  0.00 -0.06 -0.05  0.07
                                             deloc  38:  0.00 -0.07 -0.03  0.07
                                             deloc  26:  0.01 -0.04 -0.02  0.05
                                             deloc  17: -0.03  0.00  0.02  0.04
                                             deloc  36:  0.01 -0.01 -0.01  0.02

   Residual nuclear charge   -0.08 -0.04 -6.79  6.79    -0.08 -0.04 -6.79  6.79
                            ----------------------------------------------------
         Net dipole moment    1.19 -0.11  5.45  5.58     1.14 -0.13  1.55  1.93
 Delocalization correction                               0.05  0.02  3.90  3.90
                            ----------------------------------------------------
       Total dipole moment    1.19 -0.11  5.45  5.58     1.19 -0.11  5.45  5.58


 NATURAL RESONANCE THEORY ANALYSIS:

 Maximum reference structures : 20
 Maximum resonance structures : 300
 Memory requirements : 3223545 words of 99830816 available

 0 candidate reference structure(s) calculated by SR LEWIS
 Possible hypervalency for atom 1; restart with full density matrix
 8 candidate reference structure(s) calculated by SR LEWIS
 Initial loops searched 8 bonding pattern(s); 8 were retained
 Delocalization list threshold set to 1.65 kcal/mol for reference 1
 Delocalization list threshold set to 1.00 kcal/mol for reference 2
 Delocalization list threshold set to 12.43 kcal/mol for reference 3
 Delocalization list threshold set to 1.43 kcal/mol for reference 4
 Delocalization list threshold set to 1.65 kcal/mol for reference 5
 Delocalization list threshold set to 1.43 kcal/mol for reference 6
 Delocalization list threshold set to 12.43 kcal/mol for reference 7
 Delocalization list threshold set to 1.63 kcal/mol for reference 8
 Reference   1:  rho*=1.65691, f(w)=0.76546 converged after  48 iterations
 Reference   2:  rho*=1.10666, f(w)=0.79764 converged after  34 iterations
 Reference   3:  rho*=1.88904, f(w)=0.09181 converged after  20 iterations
 Reference   4:  rho*=1.64929, f(w)=0.77402 converged after  50 iterations
 Reference   5:  rho*=1.65675, f(w)=0.76579 converged after  55 iterations
 Reference   6:  rho*=1.64929, f(w)=0.77396 converged after  49 iterations
 Reference   7:  rho*=1.88900, f(w)=0.09179 converged after  20 iterations
 Reference   8:  rho*=2.19101, f(w)=0.77633 converged after  39 iterations
 Warning:  reference structure has lower weight than 2 of the secondaries
 Multi-ref( 8):  D(W)=0.00818, F(W)=0.10156 converged after 242 iterations
 3 reference structures have low weight (<35.0% of 20.3%); discarded
 Multi-ref( 5):  D(W)=0.00820, F(W)=0.10010 converged after 178 iterations

                                                fractional accuracy f(w)
                  non-Lewis             -------------------------------------
  Ref     Wgt      density      d(0)      all NBOs     val+core     valence
 ----------------------------------------------------------------------------
   1    0.16972    1.65691    0.06560     0.76546      0.89701      0.89702
   2    0.31954    1.10666    0.03903     0.79764      0.90386      0.90387
   4    0.17051    1.64929    0.06713     0.77402      0.89981      0.89981
   5    0.16973    1.65675    0.06559     0.76579      0.89768      0.89768
   6    0.17050    1.64929    0.06713     0.77396      0.89979      0.89980


 TOPO matrix for the leading resonance structure:

     Atom  1   2   3   4   5   6   7   8   9
     ---- --- --- --- --- --- --- --- --- ---
   1.  S   0   1   1   1   1   0   0   0   0
   2.  O   1   3   0   0   0   0   0   0   0
   3.  O   1   0   3   0   0   0   0   0   0
   4.  N   1   0   0   1   0   1   1   0   0
   5.  N   1   0   0   0   1   0   0   1   1
   6.  H   0   0   0   1   0   0   0   0   0
   7.  H   0   0   0   1   0   0   0   0   0
   8.  H   0   0   0   0   1   0   0   0   0
   9.  H   0   0   0   0   1   0   0   0   0

         Resonance
    RS   Weight(%)                  Added(Removed)
 ---------------------------------------------------------------------------
    1*(5)  37.79
    2*(2)   9.62    S  1- O  2, ( S  1- N  4), ( O  2),  N  4
    3*(2)   9.61    S  1- O  3, ( S  1- N  5), ( O  3),  N  5
    4*(2)   8.92    S  1- O  2, ( S  1- O  3), ( O  2),  O  3
    5*(2)   8.88   ( S  1- O  2),  S  1- O  3,  O  2, ( O  3)
    6 (4)   5.38    S  1- O  3, ( S  1- N  4), ( O  3),  N  4
    7 (4)   5.36    S  1- O  2, ( S  1- N  5), ( O  2),  N  5
    8 (2)   1.20    S  1- O  2,  S  1- O  3, ( S  1- N  4), ( S  1- N  5),
                   ( O  2), ( O  3),  N  4,  N  5
    9       1.15    S  1- O  2,  S  1- O  2, ( S  1- O  3), ( S  1- N  4),
                   ( O  2), ( O  2),  O  3,  N  4
   10       1.13   ( S  1- O  2),  S  1- O  3,  S  1- O  3, ( S  1- N  5),
                    O  2, ( O  3), ( O  3),  N  5
   11       1.05    S  1- O  2,  S  1- O  2, ( S  1- N  4), ( S  1- N  5),
                   ( O  2), ( O  2),  N  4,  N  5
   12       1.05    S  1- O  3,  S  1- O  3, ( S  1- N  4), ( S  1- N  5),
                   ( O  3), ( O  3),  N  4,  N  5
   13 (2)   0.91   ( S  1- O  2),  S  1- N  4,  O  2, ( N  4)
   14 (2)   0.86   ( S  1- O  3),  S  1- N  5,  O  3, ( N  5)
   15       0.77   ( S  1- O  2),  S  1- O  3,  S  1- O  3, ( S  1- N  4),
                    O  2, ( O  3), ( O  3),  N  4
   16 (2)   0.76    S  1- N  4, ( S  1- N  5), ( N  4),  N  5
   17       0.75    S  1- O  2,  S  1- O  2, ( S  1- O  3), ( S  1- N  5),
                   ( O  2), ( O  2),  O  3,  N  5
   18 (2)   0.74   ( S  1- N  4),  S  1- N  5,  N  4, ( N  5)
   19       0.48   ( S  1- O  2), ( S  1- N  5),  S  1,  O  2, ( O  3),
                    N  5
   20       0.47   ( S  1- O  3), ( S  1- N  4),  S  1, ( O  2),  O  3,
                    N  4
   21 (2)   0.29   ( S  1- O  2),  S  1- N  5,  O  2, ( N  5)
   22 (2)   0.27   ( S  1- O  3),  S  1- N  4,  O  3, ( N  4)
   23       0.20   ( S  1- N  4),  S  1- N  5, ( N  5- H  9),  H  9
   24       0.20    S  1- N  4, ( S  1- N  5), ( N  4- H  6),  H  6
   25       0.15    O  2- H  8, ( N  5- H  8), ( O  2),  N  5
   26       0.15    O  3- H  7, ( N  4- H  7), ( O  3),  N  4
   27       0.15   ( S  1- O  3), ( S  1- N  4),  S  1,  O  3
   28       0.15    O  2- N  5, ( N  5- H  8), ( O  2),  H  8
   29       0.15    O  3- N  4, ( N  4- H  7), ( O  3),  H  7
   30       0.14   ( S  1- O  3), ( S  1- N  5),  S  1, ( O  2),  O  3,
                    N  5
   31       0.13   ( S  1- O  2), ( S  1- N  5),  S  1,  O  2
   32       0.11    S  1- O  2, ( S  1- O  3), ( S  1- N  4), ( S  1- N  5),
                    S  1, ( O  2),  O  3,  N  5
   33       0.11   ( S  1- O  2),  S  1- O  3, ( S  1- N  4),  S  1- N  5,
                    O  2, ( O  3),  N  4, ( N  5)
   34       0.11    S  1- O  2, ( S  1- O  3),  S  1- N  4, ( S  1- N  5),
                   ( O  2),  O  3, ( N  4),  N  5
   35       0.10   ( S  1- O  2), ( S  1- N  4),  S  1,  O  2, ( O  3),
                    N  4
   36       0.10   ( S  1- O  2),  S  1- O  3, ( S  1- N  4), ( S  1- N  5),
                    S  1,  O  2, ( O  3),  N  4
   37-76    0.61
 ---------------------------------------------------------------------------
          100.00   * Total *                [* = reference structure]


 Natural Bond Order:  (total/covalent/ionic)

     Atom       1      2      3      4      5      6      7      8      9
     ----   ------ ------ ------ ------ ------ ------ ------ ------ ------
   1.  S  t 0.0198 1.1813 1.1815 0.7988 0.7988 0.0000 0.0000 0.0000 0.0000
          c   ---  0.5757 0.5758 0.5403 0.5406 0.0000 0.0000 0.0000 0.0000
          i   ---  0.6056 0.6057 0.2585 0.2583 0.0000 0.0000 0.0000 0.0000

   2.  O  t 1.1813 2.8084 0.0000 0.0000 0.0015 0.0000 0.0000 0.0015 0.0000
          c 0.5757   ---  0.0000 0.0000 0.0000 0.0000 0.0000 0.0000 0.0000
          i 0.6056   ---  0.0000 0.0000 0.0015 0.0000 0.0000 0.0015 0.0000

   3.  O  t 1.1815 0.0000 2.8084 0.0015 0.0000 0.0000 0.0015 0.0000 0.0000
          c 0.5758 0.0000   ---  0.0000 0.0000 0.0000 0.0000 0.0000 0.0000
          i 0.6057 0.0000   ---  0.0015 0.0000 0.0000 0.0015 0.0000 0.0000

   4.  N  t 0.7988 0.0000 0.0015 1.2005 0.0000 0.9978 0.9966 0.0000 0.0000
          c 0.5403 0.0000 0.0000   ---  0.0000 0.5950 0.5974 0.0000 0.0000
          i 0.2585 0.0000 0.0015   ---  0.0000 0.4028 0.3992 0.0000 0.0000

   5.  N  t 0.7988 0.0015 0.0000 0.0000 1.2008 0.0000 0.0000 0.9966 0.9978
          c 0.5406 0.0000 0.0000 0.0000   ---  0.0000 0.0000 0.5974 0.5949
          i 0.2583 0.0015 0.0000 0.0000   ---  0.0000 0.0000 0.3992 0.4028

   6.  H  t 0.0000 0.0000 0.0000 0.9978 0.0000 0.0020 0.0000 0.0000 0.0000
          c 0.0000 0.0000 0.0000 0.5950 0.0000   ---  0.0000 0.0000 0.0000
          i 0.0000 0.0000 0.0000 0.4028 0.0000   ---  0.0000 0.0000 0.0000

   7.  H  t 0.0000 0.0000 0.0015 0.9966 0.0000 0.0000 0.0015 0.0000 0.0000
          c 0.0000 0.0000 0.0000 0.5974 0.0000 0.0000   ---  0.0000 0.0000
          i 0.0000 0.0000 0.0015 0.3992 0.0000 0.0000   ---  0.0000 0.0000

   8.  H  t 0.0000 0.0015 0.0000 0.0000 0.9966 0.0000 0.0000 0.0015 0.0000
          c 0.0000 0.0000 0.0000 0.0000 0.5974 0.0000 0.0000   ---  0.0000
          i 0.0000 0.0015 0.0000 0.0000 0.3992 0.0000 0.0000   ---  0.0000

   9.  H  t 0.0000 0.0000 0.0000 0.0000 0.9978 0.0000 0.0000 0.0000 0.0020
          c 0.0000 0.0000 0.0000 0.0000 0.5949 0.0000 0.0000 0.0000   ---
          i 0.0000 0.0000 0.0000 0.0000 0.4028 0.0000 0.0000 0.0000   ---


 Natural Atomic Valencies:

                      Co-    Electro-
     Atom  Valency  Valency  Valency
     ----  -------  -------  -------
   1.  S    3.9605   2.2325   1.7280
   2.  O    1.1843   0.5757   0.6086
   3.  O    1.1845   0.5758   0.6087
   4.  N    2.7947   1.7327   1.0619
   5.  N    2.7947   1.7329   1.0618
   6.  H    0.9978   0.5950   0.4028
   7.  H    0.9981   0.5974   0.4007
   8.  H    0.9981   0.5974   0.4007
   9.  H    0.9978   0.5949   0.4028


 $NRTSTR
   STR        ! Wgt = 37.79%
     LONE 2 3 3 3 4 1 5 1 END
     BOND S 1 2 S 1 3 S 1 4 S 1 5 S 4 6 S 4 7 S 5 8 S 5 9 END
   END
   STR        ! Wgt =  9.62%
     LONE 2 2 3 3 4 2 5 1 END
     BOND D 1 2 S 1 3 S 1 5 S 4 6 S 4 7 S 5 8 S 5 9 END
   END
   STR        ! Wgt =  9.61%
     LONE 2 3 3 2 4 1 5 2 END
     BOND S 1 2 D 1 3 S 1 4 S 4 6 S 4 7 S 5 8 S 5 9 END
   END
   STR        ! Wgt =  8.92%
     LONE 2 2 3 4 4 1 5 1 END
     BOND D 1 2 S 1 4 S 1 5 S 4 6 S 4 7 S 5 8 S 5 9 END
   END
   STR        ! Wgt =  8.88%
     LONE 2 4 3 2 4 1 5 1 END
     BOND D 1 3 S 1 4 S 1 5 S 4 6 S 4 7 S 5 8 S 5 9 END
   END
 $END

 Maximum scratch memory used by NBO was 3831405 words
 Maximum scratch memory used by GENNBO was 269445 words

 Total cpu seconds     user:     829.000   user+sys:     878.000
  
 Total elapsed time:    3481 seconds

Job c2 completed on d6copt023.crc.nd.edu at Fri Apr 11 12:54:19 2014
