Job c2v1 started on d6copt023.crc.nd.edu at Fri Apr 11 12:54:36 2014
jobid: d6copt023-0-53481e4c

  +--------------------------------------------------------------------+
  |  Jaguar version 8.1, release  14                                   |
  |                                                                    |
  |  Copyright Schrodinger, LLC                                        |
  |  All Rights Reserved.                                              |
  |                                                                    |
  |  Use of this program should be acknowledged in publications as:    |
  |  Jaguar, version 8.1, Schrodinger, LLC, New York, NY, 2013.        |
  +--------------------------------------------------------------------+
  
  start of program pre
  
  Job name: c2v1
  Executables used: /opt/crc/schrodinger/2013u2/jaguar-v81014/bin/Linux-x86_64
  Temporary files : /tmp/ehansen3/c2v1#d6copt023-0-53481e4c
  Maestro file (input):  c2v1.mae
  Maestro file (output): c2v1.01.mae
  
  
  basis set:             cc-pvtz(-f)++   
  net molecular charge:    0
  multiplicity:            1
  
  Running   8 MPI processes
   
  Master MPI process running on d6copt023.crc.nd.edu
   Slave MPI process   1 running on d6copt023.crc.nd.edu
   Slave MPI process   2 running on d6copt023.crc.nd.edu
   Slave MPI process   3 running on d6copt023.crc.nd.edu
   Slave MPI process   4 running on d6copt023.crc.nd.edu
   Slave MPI process   5 running on d6copt023.crc.nd.edu
   Slave MPI process   6 running on d6copt023.crc.nd.edu
   Slave MPI process   7 running on d6copt023.crc.nd.edu
  
  number of basis functions....          216
  
 Input geometry:
                                   angstroms
  atom               x                 y                 z
  S1           -0.0016749119     -0.0000585714      0.0872890834 
  O2            1.2595972263      0.0019320929      0.7912139101 
  O3           -1.3084702575     -0.0021452537      0.7025971670 
  N4            0.0291466067      1.3650313497     -0.8600790662 
  N5            0.0329502612     -1.3648466792     -0.8602660387 
  H6            0.9046028510      1.5343951614     -1.3393970142 
  H7           -0.8103504146      1.5307643947     -1.4009558230 
  H8            0.9079775129     -1.5309859982     -1.3413849221 
  H9           -0.8072156271     -1.5342709002     -1.3990107826 
   
  principal moments of inertia:
        amu*angstrom^2:      102.11958      107.99187      117.42024
                g*cm^2: 1.69573525E-38 1.79324698E-38 1.94980876E-38
   
  rotational constants:
               cm^(-1):      0.16507735      0.15610091      0.14356663
                   GHz:      4.94889448      4.67978750      4.30401943
   
  Molecular weight:      96.00 amu
   
  Stoichiometry: N2H4SO2
  Molecular Point Group: C1      
  Point Group used: C1
  
 
Number of optimization coordinates:    21
Number of independent coordinates:     21
Number of non-redundant coordinates:   21
Number of frozen coordinates:           0
Number of harmonic constraints:         0
 
Number of geometric degrees of freedom:    21
Maximum geometric degrees of freedom:      21
 " " " " " excluding dummy atoms:          21
 
  nuclear repulsion energy.......     282.759686245 hartrees
 
 Non-default options chosen:
   SCF calculation type: DFT(m06)                    
   DFT=M06
   Geometry will be optimized in redundant internal coordinates
   Vibrational frequencies and related properties will be computed
      from analytic second derivatives
   IR intensities will be computed
   High accuracy cutoffs used in SCF
   Initial Hessian:  analytic 2nd derivatives
   Electrostatic potential fit to point charges on atomic centers
   Electrostatic potential fitting constrained to reproduce
     total charge:                yes
     dipole moment:               yes
     traceless quadrupole moment: no 
     traceless octapole moment:   no 
   Store KE, NAI, and pt. chg. terms separately
  
 Temporary integer options set:
     73=  2
  
  Peak memory usage:    734 Mb
  
  end of program pre
   
 Time(pre)  user:        0.0  user+sys:        0.0  wallclock:        1.7
  
  start of program onee
  
  smallest eigenvalue of S:    4.027E-05
  number of canonical orbitals.....          210
  Peak memory usage:    830 Mb
  
  end of program onee
   
 Time(onee)  user:        0.0  user+sys:        0.0  wallclock:        1.7
  
  start of program hfig
  
  initial wavefunction generated automatically from atomic wavefunctions
 
  Irreducible     Total no   No of occupied orbitals 
  representation  orbitals   Shell_1  Shell_2    ...
  No Symm          210         25
  ------------------------
  Orbital occupation/shell    1.000
 
  Peak memory usage:    770 Mb
  
  end of program hfig
   
 Time(hfig)  user:        0.0  user+sys:        0.0  wallclock:        1.7
  
  start of program probe
  
  Peak memory usage:    775 Mb
  
  end of program probe
   
 Time(probe)  user:        0.0  user+sys:        0.0  wallclock:        1.5
  
  start of program grid
  
  
   grid     grid set  grid #  grid sym
  ------    --------  ------  --------
  coarse        0        0        1
  medium        2        1        1
  fine          0        0        1
  ultrafine     4        2        1
  charge       -1        3        1
  gradient      4        2        1
  density       0        0        1
  DFT-fine    -11        4        1
  DFT-med.    -10        5        1
  DFT-grad    -12        6        1
  DFT-der2     -8        7        1
  DFT-cphf     -9        8        1
  LMP2-enrg     4        2        1
  LMP2-grad     2        1        1
  DFT-cphf2   -15        9        1
  PBF-dens      0        0        1
  plotting      0        0        1
  
   
  number of gridpoints: 
     atom        S1       O2       O3       N4       N5       H6       H7
  grid # 1      546      739      739      488      488      228      228
  grid # 2      546      739      739      488      488      229      229
  grid # 3       22     1414     1414      229      229     1219     1219
  grid # 4    22280    22280    22280    22280    22280    22280    22280
  grid # 5     2152     2152     2152     2152     2152     2152     2152
  grid # 6    21648    21648    21648    21648    21648    21648    21648
  grid # 7    65628    63040    63040    62394    62394    66806    66806
  grid # 8     3470     7568     7568     8972     8972     9848     9848
  grid # 9      802     1434     1434     3852     3852     2486     2486
   
  number of gridpoints: 
     atom        H8       H9    total
  grid # 1      228      228     3912
  grid # 2      229      229     3916
  grid # 3     1220     1220     8186
  grid # 4    22280    22280   200520
  grid # 5     2152     2152    19368
  grid # 6    21648    21648   194832
  grid # 7    66806    66806   583720
  grid # 8     9848     9848    75942
  grid # 9     2486     2486    21318
   
  Sorting grid blocks by size.
  Peak memory usage:    785 Mb
  
  end of program grid
   
 Time(grid)  user:        1.0  user+sys:        2.0  wallclock:        3.8
  
  start of program rwr
  
  Peak memory usage:    753 Mb
  
  end of program rwr
   
 Time(rwr)  user:        1.0  user+sys:        1.0  wallclock:        2.5
  
  start of program scf
  
 number of electrons..........         50
 number of alpha electrons....         25
 number of beta electrons.....         25
 number of orbitals, total....        210
 number of doubly-occ'd orbs..         25
 number of open shell orbs....          0
 number of occupied orbitals..         25
 number of virtual orbitals...        185
 number of hamiltonians.......          1
 number of shells.............          1
 SCF type: DFT=M06
  
       i  u  d  i  g                   
       t  p  i  c  r                                 RMS    maximum
       e  d  i  u  i                       energy  density   DIIS  
       r  t  s  t  d       total energy    change  change    error 
  
etot    1  N  N  4  M    -658.96907684658           4.2E-03  1.8E-01
etot    2  Y  Y  6  M    -660.09275301471  1.1E+00  2.3E-03  7.2E-02
etot    3  Y  Y  6  M    -660.39896615996  3.1E-01  7.4E-04  4.8E-02
etot    4  N  Y  1  U    -660.45473459837  5.6E-02  6.9E-04  1.6E-02
etot    5  Y  Y  6  M    -660.46309377860  8.4E-03  4.2E-04  7.4E-03
etot    6  N  Y  1  U    -660.46349040011  4.0E-04  1.0E-04  1.9E-03
etot    7  Y  Y  6  M    -660.46370917822  2.2E-04  1.7E-05  4.7E-04
etot    8  N  Y  1  U    -660.46370124471 -7.9E-06  9.8E-06  7.0E-05
etot    9  N  Y  1  U    -660.46370116279 -8.2E-08  1.5E-06  1.9E-05
etot   10  N  N  1  U    -660.46370120439  4.2E-08  0.0E+00  0.0E+00
  
  
 Energy components, in hartrees:
   (A)  Nuclear repulsion............     282.75968624474
   (E)  Total one-electron terms.....   -1469.31127020285
   (F)    Electron-nuclear...........   -2126.52030427849
   (H)    Kinetic....................     657.20903407564
   (I)  Total two-electron terms.....     526.08788275371
   (J)    Coulomb....................     584.25266082908
   (K)    Exchange+Correlation.......     -58.16477807537
   (L)  Electronic energy............    -943.22338744913  (E+I)
   (M)  -V/T.........................       2.00495225561  (-(A+F+I)/H)
   (N)  Total energy.................    -660.46370120439  (A+L)
  
 SCFE: SCF energy: DFT(m06)      -660.46370120439 hartrees   iterations:  10
  
 
 HOMO energy:    -0.30300
 LUMO energy:    -0.06158
 
  Orbital energies (hartrees): 
   -89.31378   -19.22311   -19.22308   -14.43613   -14.43609    -8.27071
    -6.18912    -6.18814    -6.18696    -1.16329    -1.05258    -0.94661
    -0.92612    -0.67122    -0.58574    -0.57142    -0.55365    -0.51634
    -0.46677    -0.38372    -0.36880    -0.35512    -0.35300    -0.34102
    -0.30300    -0.06158    -0.03435    -0.03175    -0.00244     0.00169
     0.01771     0.02803     0.03016     0.04231     0.05662
 
  Peak memory usage:    855 Mb
  
  end of program scf
   
 Time(scf)  user:       36.0  user+sys:       39.0  wallclock:       44.1
  
  start of program cutabab2
  
  Peak memory usage:    553 Mb
  
  end of program cutabab2
   
 Time(cutabab2)  user:        1.0  user+sys:        1.0  wallclock:        1.5
  
  start of program der2a
  
  Peak memory usage:    600 Mb
  
  end of program der2a
   
 Time(der2a)  user:        0.0  user+sys:        0.0  wallclock:        2.0
  
  start of program der2b
  
  Peak memory usage:    963 Mb
  
  end of program der2b
   
 Time(der2b)  user:      300.0  user+sys:      318.0  wallclock:      320.9
  
  start of program der2nda
  
 
  Peak memory usage:    599 Mb
  
  end of program der2nda
   
 Time(der2nda)  user:        0.0  user+sys:        0.0  wallclock:        0.9
  
  start of program der2ndb
  
  Peak memory usage:    794 Mb
  
  end of program der2ndb
   
 Time(der2ndb)  user:      765.0  user+sys:      828.0  wallclock:      831.1
  
  start of program rwr
  
  Peak memory usage:    753 Mb
  
  end of program rwr
   
 Time(rwr)  user:        1.0  user+sys:        1.0  wallclock:        2.4
  
  start of program cphfa
  
       1  vectors produced in CPHF
  
     v    i  j  k  i  g
     e    t  c  c  c  r
     c    e  o  o  u  i
     t    r  r  r  t  d       RMS  
  
     1    1  0  0  6  M     1.6E-02
     1    2  0  0  6  M     9.0E-04
     1    3  0  0  6  M     4.1E-04
     1    4  0  0  6  M     1.2E-04
     1    5  0  0  6  M     3.4E-05
  
  
  Atomic Polar Tensors (au): Total
  =========================
  
  APT for atom S1      
  --------------------------------------
        2.1698      -0.0002       0.0008
       -0.0002       2.5301       0.0000
        0.0008       0.0000       2.1433
  --------------------------------------
  
  APT for atom O2      
  --------------------------------------
       -1.0149      -0.0006      -0.3454
       -0.0007      -0.6124      -0.0005
       -0.2188      -0.0002      -0.7383
  --------------------------------------
  
  APT for atom O3      
  --------------------------------------
       -1.0524      -0.0007       0.3238
       -0.0008      -0.6124       0.0006
        0.1972       0.0002      -0.7008
  --------------------------------------
  
  APT for atom N4      
  --------------------------------------
       -0.3915      -0.0071       0.0092
       -0.0057      -1.1299       0.1990
        0.0091       0.2370      -0.6605
  --------------------------------------
  
  APT for atom N5      
  --------------------------------------
       -0.3916       0.0092       0.0094
        0.0080      -1.1299      -0.1989
        0.0095      -0.2370      -0.6609
  --------------------------------------
  
  APT for atom H6      
  --------------------------------------
        0.1687       0.0724       0.0067
        0.0412       0.2387       0.0438
        0.0249       0.0785       0.1553
  --------------------------------------
  
  APT for atom H7      
  --------------------------------------
        0.1712      -0.0780      -0.0058
       -0.0444       0.2384       0.0407
       -0.0242       0.0731       0.1532
  --------------------------------------
  
  APT for atom H8      
  --------------------------------------
        0.1692      -0.0727       0.0068
       -0.0414       0.2384      -0.0437
        0.0252      -0.0784       0.1554
  --------------------------------------
  
  APT for atom H9      
  --------------------------------------
        0.1709       0.0777      -0.0055
        0.0441       0.2388      -0.0408
       -0.0238      -0.0734       0.1534
  --------------------------------------
  
  Peak memory usage:    860 Mb
  
  end of program cphfa
   
 Time(cphfa)  user:      277.0  user+sys:      279.0  wallclock:      280.7
  
  start of program der1a
  
  Peak memory usage:    830 Mb
  
  end of program der1a
   
 Time(der1a)  user:        0.0  user+sys:        0.0  wallclock:        1.6
  
  start of program rwr
  
  Peak memory usage:    748 Mb
  
  end of program rwr
   
 Time(rwr)  user:        0.0  user+sys:        0.0  wallclock:        2.1
  
  start of program der1b
  
   
  forces (hartrees/bohr) : total     
   
 atom  label           x              y              z
 ---- --------   -------------  -------------  -------------
    1 S1         -1.445867E-04   1.649740E-05   4.155311E-03
    2 O2         -1.762634E-02  -2.666919E-05  -7.929349E-03
    3 O3          1.813639E-02   3.312970E-05  -6.684603E-03
    4 N4         -8.392078E-05   4.754870E-04   3.123116E-03
    5 N5         -1.322617E-04  -4.898872E-04   3.126053E-03
    6 H6         -2.492332E-03  -1.794847E-03   6.889886E-04
    7 H7          2.411376E-03  -1.774644E-03   8.578344E-04
    8 H8         -2.467923E-03   1.779923E-03   6.846235E-04
    9 H9          2.440245E-03   1.794147E-03   8.617552E-04
 -------------   -------------  -------------  -------------
     total        4.063927E-05   1.313614E-05  -1.116270E-03
   
  Peak memory usage:    860 Mb
  
  end of program der1b
   
 Time(der1b)  user:       14.0  user+sys:       14.0  wallclock:       16.3
  
  start of program geopt
  
  geometry optimization step  1
  energy:            -660.46370120439 hartrees
  
  gradient maximum:        1.9201E-02 .  (  4.5000E-04 )
  gradient rms:            6.5348E-03 .  (  3.0000E-04 )
  displacement maximum:    1.4059E-01 .  (  1.8000E-03 )
  displacement rms:        5.1801E-02 .  (  1.2000E-03 )
  
  predicted energy change:  -1.0870E-03
  step size:     0.23738
  trust radius:  0.30000
  
  molecular structure not yet converged...
  
  center of mass moved by:
     x:    -6.5763E-04     y:    -4.4005E-04     z:     2.2170E-02
  
  new geometry: 
                                   angstroms
  atom               x                 y                 z
  S1           -0.0014919258      0.0000987623      0.0848853595 
  O2            1.2410807632      0.0024787782      0.7902269933 
  O3           -1.2877061491     -0.0021948711      0.7069900594 
  N4            0.0273549969      1.3683593265     -0.8557959027 
  N5            0.0314708365     -1.3692853191     -0.8545613902 
  H6            0.8933943550      1.4845945145     -1.3644738623 
  H7           -0.7954472918      1.4744576284     -1.4336753775 
  H8            0.8944757712     -1.4778555771     -1.3701981537 
  H9           -0.7934363947     -1.4787420204     -1.4289752788 
   
  nuclear repulsion energy.......     284.536059836 hartrees
  -------------------------------------------------
 /  end of geometry optimization iteration   1   /
 -------------------------------------------------
   
  Peak memory usage:    449 Mb
  
  end of program geopt
   
 Time(geopt)  user:        0.0  user+sys:        0.0  wallclock:        0.3
  
  start of program onee
  
  smallest eigenvalue of S:    3.802E-05
  number of canonical orbitals.....          210
  Peak memory usage:    830 Mb
  
  end of program onee
   
 Time(onee)  user:        0.0  user+sys:        0.0  wallclock:        1.6
  
  start of program probe
  
  Peak memory usage:    770 Mb
  
  end of program probe
   
 Time(probe)  user:        0.0  user+sys:        0.0  wallclock:        1.5
  
  start of program grid
  
  
   grid     grid set  grid #  grid sym
  ------    --------  ------  --------
  coarse        0        0        1
  medium        2        1        1
  fine          0        0        1
  ultrafine     4        2        1
  charge       -1        3        1
  gradient      4        2        1
  density       0        0        1
  DFT-fine    -11        4        1
  DFT-med.    -10        5        1
  DFT-grad    -12        6        1
  DFT-der2     -8        7        1
  DFT-cphf     -9        8        1
  LMP2-enrg     4        2        1
  LMP2-grad     2        1        1
  DFT-cphf2   -15        9        1
  PBF-dens      0        0        1
  plotting      0        0        1
  
   
  number of gridpoints: 
     atom        S1       O2       O3       N4       N5       H6       H7
  grid # 1      546      739      739      487      487      223      223
  grid # 2      546      739      739      487      487      223      223
  grid # 3       18     1411     1411      264      267     1182     1181
  grid # 4    22280    22280    22280    22280    22280    22280    22280
  grid # 5     2152     2152     2152     2152     2152     2152     2152
  grid # 6    21648    21648    21648    21648    21648    21648    21648
  grid # 7    65628    63040    63040    62394    62394    66806    66806
  grid # 8     3470     7568     7568     8972     8972     9848     9848
  grid # 9      802     1434     1434     3852     3852     2486     2486
   
  number of gridpoints: 
     atom        H8       H9    total
  grid # 1      222      222     3888
  grid # 2      222      222     3888
  grid # 3     1182     1181     8097
  grid # 4    22280    22280   200520
  grid # 5     2152     2152    19368
  grid # 6    21648    21648   194832
  grid # 7    66806    66806   583720
  grid # 8     9848     9848    75942
  grid # 9     2486     2486    21318
   
  Sorting grid blocks by size.
  Peak memory usage:    785 Mb
  
  end of program grid
   
 Time(grid)  user:        1.0  user+sys:        2.0  wallclock:        3.8
  
  start of program rwr
  
  Peak memory usage:    748 Mb
  
  end of program rwr
   
 Time(rwr)  user:        1.0  user+sys:        1.0  wallclock:        4.3
  
  start of program scf
  
  
       i  u  d  i  g                   
       t  p  i  c  r                                 RMS    maximum
       e  d  i  u  i                       energy  density   DIIS  
       r  t  s  t  d       total energy    change  change    error 
  
etot    1  N  N  1  U    -660.46203876216           4.0E-04  6.7E-03
etot    2  Y  Y  6  M    -660.46432579297  2.3E-03  8.6E-05  1.4E-03
etot    3  Y  Y  6  M    -660.46445567966  1.3E-04  2.4E-05  1.1E-03
etot    4  N  Y  1  U    -660.46447793609  2.2E-05  9.7E-06  3.5E-04
etot    5  N  Y  1  U    -660.46448118093  3.2E-06  5.9E-06  9.2E-05
etot    6  N  Y  1  U    -660.46448189576  7.1E-07  1.9E-06  3.7E-05
etot    7  N  N  1  U    -660.46448201248  1.2E-07  0.0E+00  0.0E+00
  
  
 Energy components, in hartrees:
   (A)  Nuclear repulsion............     284.53605983641
   (E)  Total one-electron terms.....   -1472.78682840629
   (F)    Electron-nuclear...........   -2130.16064736659
   (H)    Kinetic....................     657.37381896030
   (I)  Total two-electron terms.....     527.78628655739
   (J)    Coulomb....................     585.98563372185
   (K)    Exchange+Correlation.......     -58.19934716445
   (L)  Electronic energy............    -945.00054184889  (E+I)
   (M)  -V/T.........................       2.00470153049  (-(A+F+I)/H)
   (N)  Total energy.................    -660.46448201248  (A+L)
  
 SCFE: SCF energy: DFT(m06)      -660.46448201248 hartrees   iterations:   7
  
 
 HOMO energy:    -0.30898
 LUMO energy:    -0.06338
 
  Orbital energies (hartrees): 
   -89.30983   -19.22141   -19.22126   -14.43790   -14.43786    -8.26819
    -6.18648    -6.18545    -6.18442    -1.17157    -1.05825    -0.95194
    -0.93068    -0.66851    -0.58876    -0.57130    -0.55229    -0.51655
    -0.46718    -0.39046    -0.37258    -0.35606    -0.35563    -0.34241
    -0.30898    -0.06338    -0.03368    -0.03273    -0.00150     0.00127
     0.01742     0.02809     0.02979     0.04177     0.05632
 
  Peak memory usage:    855 Mb
  
  end of program scf
   
 Time(scf)  user:       27.0  user+sys:       28.0  wallclock:       34.6
  
  start of program der1a
  
  Peak memory usage:    830 Mb
  
  end of program der1a
   
 Time(der1a)  user:        0.0  user+sys:        0.0  wallclock:        1.5
  
  start of program rwr
  
  Peak memory usage:    748 Mb
  
  end of program rwr
   
 Time(rwr)  user:        0.0  user+sys:        0.0  wallclock:        2.1
  
  start of program der1b
  
   
  forces (hartrees/bohr) : total     
   
 atom  label           x              y              z
 ---- --------   -------------  -------------  -------------
    1 S1         -9.829147E-05  -6.818709E-05  -7.720681E-04
    2 O2          3.270851E-04   5.034893E-05   2.685734E-04
    3 O3         -3.433885E-04   1.875501E-05   2.230231E-04
    4 N4          1.421781E-04   3.888110E-04  -6.855440E-04
    5 N5          1.279563E-04  -3.516985E-04  -8.714261E-04
    6 H6          4.257423E-04  -2.163161E-04  -3.310058E-05
    7 H7         -4.817964E-04  -1.580301E-04   1.389772E-05
    8 H8          5.022435E-04   1.878148E-04   5.092746E-05
    9 H9         -5.384823E-04   1.560142E-04   5.915683E-05
 -------------   -------------  -------------  -------------
     total        6.324683E-05   7.511949E-06  -1.746560E-03
   
  Peak memory usage:    860 Mb
  
  end of program der1b
   
 Time(der1b)  user:       14.0  user+sys:       14.0  wallclock:       16.7
  
  start of program geopt
  
  geometry optimization step  2
  energy:            -660.46448201248 hartrees
  
  energy change:          -7.8081E-04 .  (  5.0000E-05 )
  gradient maximum:        8.2108E-04 .  (  4.5000E-04 )
  gradient rms:            4.7951E-04 .  (  3.0000E-04 )
  displacement maximum:    9.8456E-03 .  (  1.8000E-03 )
  displacement rms:        3.5953E-03 .  (  1.2000E-03 )
  
  predicted energy change:  -8.9769E-06
  step size:     0.01648
  trust radius:  0.30000
  
  molecular structure not yet converged...
  
  center of mass moved by:
     x:    -2.0033E-04     y:     7.3675E-04     z:    -2.5852E-04
  
  new geometry: 
                                   angstroms
  atom               x                 y                 z
  S1           -0.0016067198     -0.0001121453      0.0849106423 
  O2            1.2399317996      0.0017356036      0.7929240168 
  O3           -1.2883763210     -0.0024513848      0.7068289096 
  N4            0.0285210023      1.3686060841     -0.8561017524 
  N5            0.0326023237     -1.3676045372     -0.8573358079 
  H6            0.8944978850      1.4783039577     -1.3679704051 
  H7           -0.7975778123      1.4736449634     -1.4300622883 
  H8            0.8977333815     -1.4755701557     -1.3698755119 
  H9           -0.7950764768     -1.4781495550     -1.4276643777 
   
  nuclear repulsion energy.......     284.482665133 hartrees
  -------------------------------------------------
 /  end of geometry optimization iteration   2   /
 -------------------------------------------------
   
  Peak memory usage:    449 Mb
  
  end of program geopt
   
 Time(geopt)  user:        0.0  user+sys:        0.0  wallclock:        0.2
  
  start of program onee
  
  smallest eigenvalue of S:    3.798E-05
  number of canonical orbitals.....          210
  Peak memory usage:    830 Mb
  
  end of program onee
   
 Time(onee)  user:        0.0  user+sys:        0.0  wallclock:        2.9
  
  start of program probe
  
  Peak memory usage:    770 Mb
  
  end of program probe
   
 Time(probe)  user:        0.0  user+sys:        0.0  wallclock:        1.6
  
  start of program grid
  
  
   grid     grid set  grid #  grid sym
  ------    --------  ------  --------
  coarse        0        0        1
  medium        2        1        1
  fine          0        0        1
  ultrafine     4        2        1
  charge       -1        3        1
  gradient      4        2        1
  density       0        0        1
  DFT-fine    -11        4        1
  DFT-med.    -10        5        1
  DFT-grad    -12        6        1
  DFT-der2     -8        7        1
  DFT-cphf     -9        8        1
  LMP2-enrg     4        2        1
  LMP2-grad     2        1        1
  DFT-cphf2   -15        9        1
  PBF-dens      0        0        1
  plotting      0        0        1
  
   
  number of gridpoints: 
     atom        S1       O2       O3       N4       N5       H6       H7
  grid # 1      546      739      739      487      487      223      223
  grid # 2      546      739      739      487      487      223      223
  grid # 3       18     1413     1416      265      262     1180     1181
  grid # 4    22280    22280    22280    22280    22280    22280    22280
  grid # 5     2152     2152     2152     2152     2152     2152     2152
  grid # 6    21648    21648    21648    21648    21648    21648    21648
  grid # 7    65628    63040    63040    62394    62394    66806    66806
  grid # 8     3470     7568     7568     8972     8972     9848     9848
  grid # 9      802     1434     1434     3852     3852     2486     2486
   
  number of gridpoints: 
     atom        H8       H9    total
  grid # 1      223      223     3890
  grid # 2      223      223     3890
  grid # 3     1181     1181     8097
  grid # 4    22280    22280   200520
  grid # 5     2152     2152    19368
  grid # 6    21648    21648   194832
  grid # 7    66806    66806   583720
  grid # 8     9848     9848    75942
  grid # 9     2486     2486    21318
   
  Sorting grid blocks by size.
  Peak memory usage:    785 Mb
  
  end of program grid
   
 Time(grid)  user:        1.0  user+sys:        2.0  wallclock:        3.7
  
  start of program rwr
  
  Peak memory usage:    748 Mb
  
  end of program rwr
   
 Time(rwr)  user:        1.0  user+sys:        2.0  wallclock:        5.4
  
  start of program scf
  
  
       i  u  d  i  g                   
       t  p  i  c  r                                 RMS    maximum
       e  d  i  u  i                       energy  density   DIIS  
       r  t  s  t  d       total energy    change  change    error 
  
etot    1  N  N  1  U    -660.46448494736           2.5E-05  2.8E-04
etot    2  N  Y  1  U    -660.46450043442  1.5E-05  5.5E-06  9.7E-05
etot    3  N  Y  1  U    -660.46450094002  5.1E-07  2.0E-06  8.1E-05
etot    4  N  N  1  U    -660.46450142264  4.8E-07  0.0E+00  0.0E+00
  
  
 Energy components, in hartrees:
   (A)  Nuclear repulsion............     284.48266513271
   (E)  Total one-electron terms.....   -1472.68094958209
   (F)    Electron-nuclear...........   -2130.04790292233
   (H)    Kinetic....................     657.36695334024
   (I)  Total two-electron terms.....     527.73378302673
   (J)    Coulomb....................     585.93146739167
   (K)    Exchange+Correlation.......     -58.19768436494
   (L)  Electronic energy............    -944.94716655536  (E+I)
   (M)  -V/T.........................       2.00471205324  (-(A+F+I)/H)
   (N)  Total energy.................    -660.46450142264  (A+L)
  
 SCFE: SCF energy: DFT(m06)      -660.46450142264 hartrees   iterations:   4
  
 
 HOMO energy:    -0.30893
 LUMO energy:    -0.06338
 
  Orbital energies (hartrees): 
   -89.30985   -19.22155   -19.22134   -14.43808   -14.43803    -8.26820
    -6.18648    -6.18546    -6.18443    -1.17138    -1.05805    -0.95202
    -0.93053    -0.66826    -0.58820    -0.57184    -0.55276    -0.51647
    -0.46722    -0.39028    -0.37269    -0.35604    -0.35559    -0.34230
    -0.30893    -0.06338    -0.03363    -0.03279    -0.00156     0.00128
     0.01739     0.02806     0.02979     0.04170     0.05621
 
  Peak memory usage:    855 Mb
  
  end of program scf
   
 Time(scf)  user:       21.0  user+sys:       22.0  wallclock:       23.3
  
  start of program der1a
  
  Peak memory usage:    830 Mb
  
  end of program der1a
   
 Time(der1a)  user:        0.0  user+sys:        0.0  wallclock:        1.6
  
  start of program rwr
  
  Peak memory usage:    748 Mb
  
  end of program rwr
   
 Time(rwr)  user:        1.0  user+sys:        3.0  wallclock:        4.9
  
  start of program der1b
  
   
  forces (hartrees/bohr) : total     
   
 atom  label           x              y              z
 ---- --------   -------------  -------------  -------------
    1 S1          6.527614E-05   1.699183E-05  -1.316623E-04
    2 O2         -5.854534E-05  -9.193241E-06  -2.217817E-04
    3 O3          6.613310E-06  -1.342652E-05  -2.096697E-04
    4 N4          3.833770E-04   3.225409E-05  -4.542839E-04
    5 N5          8.515316E-05  -3.650439E-05  -7.475554E-05
    6 H6         -3.555517E-04  -5.528991E-05   3.374702E-05
    7 H7         -1.093317E-05  -1.513306E-05  -1.635579E-04
    8 H8         -3.467199E-05   3.991393E-05  -2.099620E-04
    9 H9         -4.326621E-05   2.186893E-05  -2.601904E-04
 -------------   -------------  -------------  -------------
     total        3.745116E-05  -1.851835E-05  -1.692116E-03
   
  Peak memory usage:    860 Mb
  
  end of program der1b
   
 Time(der1b)  user:       14.0  user+sys:       14.0  wallclock:       17.1
  
  start of program geopt
  
  geometry optimization step  3
  energy:            -660.46450142264 hartrees
  
  energy change:          -1.9410E-05 *  (  5.0000E-05 )
  gradient maximum:        4.2559E-04 *  (  4.5000E-04 )
  gradient rms:            1.0275E-04 *  (  3.0000E-04 )
  displacement maximum:    8.1624E-03 .  (  1.8000E-03 )
  displacement rms:        2.5976E-03 .  (  1.2000E-03 )
  
  predicted energy change:  -7.5672E-07
  step size:     0.01190
  trust radius:  0.30000
  
  molecular structure not yet converged...
  
  center of mass moved by:
     x:     1.0417E-04     y:    -8.6350E-04     z:     4.9650E-04
  
  new geometry: 
                                   angstroms
  atom               x                 y                 z
  S1           -0.0015735082      0.0000545037      0.0850229465 
  O2            1.2397067553      0.0023953208      0.7933981295 
  O3           -1.2884326634     -0.0017938940      0.7067682847 
  N4            0.0287696913      1.3673439622     -0.8577203064 
  N5            0.0326374927     -1.3685775029     -0.8562783270 
  H6            0.8946766568      1.4783384603     -1.3680910346 
  H7           -0.7979209328      1.4734122941     -1.4302905845 
  H8            0.8971976162     -1.4728567099     -1.3712887911 
  H9           -0.7949081722     -1.4758015342     -1.4282315008 
   
  nuclear repulsion energy.......     284.483406298 hartrees
  -------------------------------------------------
 /  end of geometry optimization iteration   3   /
 -------------------------------------------------
   
  Peak memory usage:    449 Mb
  
  end of program geopt
   
 Time(geopt)  user:        0.0  user+sys:        0.0  wallclock:        0.3
  
  start of program onee
  
  smallest eigenvalue of S:    3.795E-05
  number of canonical orbitals.....          210
  Peak memory usage:    830 Mb
  
  end of program onee
   
 Time(onee)  user:        0.0  user+sys:        0.0  wallclock:        1.6
  
  start of program probe
  
  Peak memory usage:    770 Mb
  
  end of program probe
   
 Time(probe)  user:        0.0  user+sys:        0.0  wallclock:        1.5
  
  start of program grid
  
  
   grid     grid set  grid #  grid sym
  ------    --------  ------  --------
  coarse        0        0        1
  medium        2        1        1
  fine          0        0        1
  ultrafine     4        2        1
  charge       -1        3        1
  gradient      4        2        1
  density       0        0        1
  DFT-fine    -11        4        1
  DFT-med.    -10        5        1
  DFT-grad    -12        6        1
  DFT-der2     -8        7        1
  DFT-cphf     -9        8        1
  LMP2-enrg     4        2        1
  LMP2-grad     2        1        1
  DFT-cphf2   -15        9        1
  PBF-dens      0        0        1
  plotting      0        0        1
  
   
  number of gridpoints: 
     atom        S1       O2       O3       N4       N5       H6       H7
  grid # 1      546      739      739      487      487      223      223
  grid # 2      546      739      739      487      487      223      223
  grid # 3       18     1414     1415      264      265     1181     1181
  grid # 4    22280    22280    22280    22280    22280    22280    22280
  grid # 5     2152     2152     2152     2152     2152     2152     2152
  grid # 6    21648    21648    21648    21648    21648    21648    21648
  grid # 7    65628    63040    63040    62394    62394    66806    66806
  grid # 8     3470     7568     7568     8972     8972     9848     9848
  grid # 9      802     1434     1434     3852     3852     2486     2486
   
  number of gridpoints: 
     atom        H8       H9    total
  grid # 1      223      223     3890
  grid # 2      223      223     3890
  grid # 3     1180     1179     8097
  grid # 4    22280    22280   200520
  grid # 5     2152     2152    19368
  grid # 6    21648    21648   194832
  grid # 7    66806    66806   583720
  grid # 8     9848     9848    75942
  grid # 9     2486     2486    21318
   
  Sorting grid blocks by size.
  Peak memory usage:    785 Mb
  
  end of program grid
   
 Time(grid)  user:        1.0  user+sys:        2.0  wallclock:        6.4
  
  start of program rwr
  
  Peak memory usage:    748 Mb
  
  end of program rwr
   
 Time(rwr)  user:        1.0  user+sys:        1.0  wallclock:        4.4
  
  start of program scf
  
  
       i  u  d  i  g                   
       t  p  i  c  r                                 RMS    maximum
       e  d  i  u  i                       energy  density   DIIS  
       r  t  s  t  d       total energy    change  change    error 
  
etot    1  N  N  1  U    -660.46449868043           1.6E-05  2.5E-04
etot    2  N  Y  1  U    -660.46450417135  5.5E-06  3.6E-06  5.3E-05
etot    3  N  N  1  U    -660.46450428742  1.2E-07  0.0E+00  0.0E+00
  
  
 Energy components, in hartrees:
   (A)  Nuclear repulsion............     284.48340629782
   (E)  Total one-electron terms.....   -1472.67888318954
   (F)    Electron-nuclear...........   -2130.04527182083
   (H)    Kinetic....................     657.36638863129
   (I)  Total two-electron terms.....     527.73097260430
   (J)    Coulomb....................     585.92857395249
   (K)    Exchange+Correlation.......     -58.19760134820
   (L)  Electronic energy............    -944.94791058524  (E+I)
   (M)  -V/T.........................       2.00471292069  (-(A+F+I)/H)
   (N)  Total energy.................    -660.46450428742  (A+L)
  
 SCFE: SCF energy: DFT(m06)      -660.46450428742 hartrees   iterations:   3
  
 
 HOMO energy:    -0.30903
 LUMO energy:    -0.06342
 
  Orbital energies (hartrees): 
   -89.30998   -19.22177   -19.22124   -14.43844   -14.43781    -8.26832
    -6.18660    -6.18558    -6.18455    -1.17146    -1.05812    -0.95214
    -0.93059    -0.66825    -0.58819    -0.57191    -0.55279    -0.51651
    -0.46727    -0.39038    -0.37277    -0.35605    -0.35566    -0.34234
    -0.30903    -0.06342    -0.03362    -0.03282    -0.00158     0.00126
     0.01737     0.02803     0.02978     0.04167     0.05618
 
  Peak memory usage:    855 Mb
  
  end of program scf
   
 Time(scf)  user:       15.0  user+sys:       16.0  wallclock:       18.2
  
  start of program der1a
  
  Peak memory usage:    830 Mb
  
  end of program der1a
   
 Time(der1a)  user:        0.0  user+sys:        0.0  wallclock:        1.6
  
  start of program rwr
  
  Peak memory usage:    748 Mb
  
  end of program rwr
   
 Time(rwr)  user:        0.0  user+sys:        0.0  wallclock:        2.1
  
  start of program der1b
  
   
  forces (hartrees/bohr) : total     
   
 atom  label           x              y              z
 ---- --------   -------------  -------------  -------------
    1 S1          7.061572E-05   7.749941E-05  -1.394690E-04
    2 O2         -2.310821E-05  -1.893792E-05  -2.122507E-04
    3 O3         -5.022603E-06  -1.637438E-05  -2.121644E-04
    4 N4          1.440439E-05   2.282762E-05   3.849532E-05
    5 N5          4.751028E-05   6.654896E-05  -4.460120E-04
    6 H6          9.415425E-06  -4.363776E-05  -2.719209E-04
    7 H7         -3.004143E-05  -1.161710E-05  -2.754378E-04
    8 H8         -1.556461E-04  -3.703848E-05  -7.703601E-05
    9 H9          1.174664E-04  -4.911878E-05  -9.749787E-05
 -------------   -------------  -------------  -------------
     total        4.559395E-05  -9.848449E-06  -1.693293E-03
   
  Peak memory usage:    860 Mb
  
  end of program der1b
   
 Time(der1b)  user:       15.0  user+sys:       15.0  wallclock:       16.4
  
  start of program geopt
  
  geometry optimization step  4
  energy:            -660.46450428742 hartrees
  
  energy change:          -2.8648E-06 *  (  5.0000E-05 )
  gradient maximum:        1.9041E-04 *  (  4.5000E-04 )
  gradient rms:            7.2748E-05 *  (  3.0000E-04 )
  displacement maximum:    4.8996E-03 .  (  1.8000E-03 )
  displacement rms:        1.8481E-03 .  (  1.2000E-03 )
  
  predicted energy change:  -6.7895E-07
  step size:     0.00847
  trust radius:  0.30000
  
  molecular structure not yet converged...
  
  center of mass moved by:
     x:     4.1500E-05     y:     6.7625E-04     z:     7.1334E-05
  
  new geometry: 
                                   angstroms
  atom               x                 y                 z
  S1           -0.0015485152     -0.0000169393      0.0850501760 
  O2            1.2396660593      0.0018240600      0.7934333155 
  O3           -1.2884633562     -0.0021984267      0.7066216995 
  N4            0.0287758780      1.3681057492     -0.8567630154 
  N5            0.0326694116     -1.3677939500     -0.8571456761 
  H6            0.8941047229      1.4771770190     -1.3687888110 
  H7           -0.7977235026      1.4726613132     -1.4302507654 
  H8            0.8973671521     -1.4739170921     -1.3708752180 
  H9           -0.7948925390     -1.4765472287     -1.4283326348 
   
  nuclear repulsion energy.......     284.489601109 hartrees
  -------------------------------------------------
 /  end of geometry optimization iteration   4   /
 -------------------------------------------------
   
  Peak memory usage:    449 Mb
  
  end of program geopt
   
 Time(geopt)  user:        0.0  user+sys:        0.0  wallclock:        0.3
  
  start of program onee
  
  smallest eigenvalue of S:    3.794E-05
  number of canonical orbitals.....          210
  Peak memory usage:    830 Mb
  
  end of program onee
   
 Time(onee)  user:        0.0  user+sys:        0.0  wallclock:        1.7
  
  start of program probe
  
  Peak memory usage:    770 Mb
  
  end of program probe
   
 Time(probe)  user:        0.0  user+sys:        0.0  wallclock:        1.5
  
  start of program grid
  
  
   grid     grid set  grid #  grid sym
  ------    --------  ------  --------
  coarse        0        0        1
  medium        2        1        1
  fine          0        0        1
  ultrafine     4        2        1
  charge       -1        3        1
  gradient      4        2        1
  density       0        0        1
  DFT-fine    -11        4        1
  DFT-med.    -10        5        1
  DFT-grad    -12        6        1
  DFT-der2     -8        7        1
  DFT-cphf     -9        8        1
  LMP2-enrg     4        2        1
  LMP2-grad     2        1        1
  DFT-cphf2   -15        9        1
  PBF-dens      0        0        1
  plotting      0        0        1
  
   
  number of gridpoints: 
     atom        S1       O2       O3       N4       N5       H6       H7
  grid # 1      546      739      739      487      487      223      223
  grid # 2      546      739      739      487      487      223      223
  grid # 3       18     1413     1415      265      265     1180     1180
  grid # 4    22280    22280    22280    22280    22280    22280    22280
  grid # 5     2152     2152     2152     2152     2152     2152     2152
  grid # 6    21648    21648    21648    21648    21648    21648    21648
  grid # 7    65628    63040    63040    62394    62394    66806    66806
  grid # 8     3470     7568     7568     8972     8972     9848     9848
  grid # 9      802     1434     1434     3852     3852     2486     2486
   
  number of gridpoints: 
     atom        H8       H9    total
  grid # 1      223      223     3890
  grid # 2      223      223     3890
  grid # 3     1180     1180     8096
  grid # 4    22280    22280   200520
  grid # 5     2152     2152    19368
  grid # 6    21648    21648   194832
  grid # 7    66806    66806   583720
  grid # 8     9848     9848    75942
  grid # 9     2486     2486    21318
   
  Sorting grid blocks by size.
  Peak memory usage:    785 Mb
  
  end of program grid
   
 Time(grid)  user:        1.0  user+sys:        2.0  wallclock:        3.8
  
  start of program rwr
  
  Peak memory usage:    748 Mb
  
  end of program rwr
   
 Time(rwr)  user:        1.0  user+sys:        1.0  wallclock:        6.1
  
  start of program scf
  
  
       i  u  d  i  g                   
       t  p  i  c  r                                 RMS    maximum
       e  d  i  u  i                       energy  density   DIIS  
       r  t  s  t  d       total energy    change  change    error 
  
etot    1  N  N  1  U    -660.46450132368           1.1E-05  1.9E-04
etot    2  N  Y  1  U    -660.46450331183  2.0E-06  3.3E-06  6.9E-05
etot    3  N  N  1  U    -660.46450337647  6.5E-08  0.0E+00  0.0E+00
  
  
 Energy components, in hartrees:
   (A)  Nuclear repulsion............     284.48960110856
   (E)  Total one-electron terms.....   -1472.69245355849
   (F)    Electron-nuclear...........   -2130.06045806093
   (H)    Kinetic....................     657.36800450244
   (I)  Total two-electron terms.....     527.73834907346
   (J)    Coulomb....................     585.93624093555
   (K)    Exchange+Correlation.......     -58.19789186210
   (L)  Electronic energy............    -944.95410448503  (E+I)
   (M)  -V/T.........................       2.00471044963  (-(A+F+I)/H)
   (N)  Total energy.................    -660.46450337647  (A+L)
  
 SCFE: SCF energy: DFT(m06)      -660.46450337647 hartrees   iterations:   3
  
 
 HOMO energy:    -0.30903
 LUMO energy:    -0.06342
 
  Orbital energies (hartrees): 
   -89.30990   -19.22195   -19.22093   -14.43846   -14.43778    -8.26825
    -6.18653    -6.18551    -6.18448    -1.17145    -1.05810    -0.95215
    -0.93061    -0.66825    -0.58821    -0.57189    -0.55278    -0.51649
    -0.46724    -0.39039    -0.37275    -0.35596    -0.35570    -0.34232
    -0.30903    -0.06342    -0.03362    -0.03281    -0.00158     0.00126
     0.01738     0.02804     0.02977     0.04167     0.05619
 
  Peak memory usage:    855 Mb
  
  end of program scf
   
 Time(scf)  user:       16.0  user+sys:       17.0  wallclock:       19.9
  
  start of program der1a
  
  Peak memory usage:    830 Mb
  
  end of program der1a
   
 Time(der1a)  user:        0.0  user+sys:        0.0  wallclock:        1.6
  
  start of program rwr
  
  Peak memory usage:    748 Mb
  
  end of program rwr
   
 Time(rwr)  user:        0.0  user+sys:        0.0  wallclock:        2.1
  
  start of program der1b
  
   
  forces (hartrees/bohr) : total     
   
 atom  label           x              y              z
 ---- --------   -------------  -------------  -------------
    1 S1          1.230348E-04   6.521147E-05  -1.825583E-04
    2 O2         -1.479400E-05  -5.546189E-06  -1.769782E-04
    3 O3         -5.069018E-05  -7.813458E-06  -1.657130E-04
    4 N4         -2.835283E-05  -1.793123E-05  -2.317326E-04
    5 N5         -1.876599E-05  -1.988230E-05  -1.775862E-04
    6 H6         -9.368176E-06  -1.784194E-05  -1.837740E-04
    7 H7          2.648038E-05   4.824522E-06  -1.625756E-04
    8 H8          2.424343E-05  -3.329762E-06  -2.095535E-04
    9 H9         -9.744248E-06  -1.596118E-05  -2.012059E-04
 -------------   -------------  -------------  -------------
     total        4.204319E-05  -1.827007E-05  -1.691677E-03
   
  Peak memory usage:    860 Mb
  
  end of program der1b
   
 Time(der1b)  user:       15.0  user+sys:       15.0  wallclock:       16.5
  
  start of program geopt
  
  geometry optimization step  5
  energy:            -660.46450337647 hartrees
  
  energy change:           9.1095E-07 #  (  5.0000E-05 )
  gradient maximum:        7.0649E-05 #  (  4.5000E-04 )
  gradient rms:            3.1638E-05 #  (  3.0000E-04 )
  displacement maximum:    1.3554E-03 *  (  1.8000E-03 )
  displacement rms:        4.4822E-04 *  (  1.2000E-03 )
  
  predicted energy change:  -5.1916E-08
  step size:     0.00205
  trust radius:  0.30000
  
  ********************************************************
  **           Geometry optimization complete           **
  ********************************************************
  
  Checking the geometry optimization convergence pattern ...
  
  WARNING:
  The energy on the last optimization iteration,
     -660.464503376470
  is higher than the energy on one of the previous iterations,
     -660.464504287421
  The difference between these two energies is 0.001 kcal/mole.
  This situation is symptomatic of potential problems with the
  initial and/or the converged structures.
  
  best                    worst
  ==0=====1=====2=====3=====4==
                      ^        
  
  Convergence category 3: convergence to a non-optimal structure.
  The difference between the final and the minimal
  energies is less than 0.010 kcal/mole.
  Peudospectral approximation:
  Geometry optimization was OK.
  
  center of mass moved by:
     x:     0.0000E+00     y:     0.0000E+00     z:     0.0000E+00
  
  final geometry: 
                                   angstroms
  atom               x                 y                 z
  S1           -0.0015485152     -0.0000169393      0.0850501760 
  O2            1.2396660593      0.0018240600      0.7934333155 
  O3           -1.2884633562     -0.0021984267      0.7066216995 
  N4            0.0287758780      1.3681057492     -0.8567630154 
  N5            0.0326694116     -1.3677939500     -0.8571456761 
  H6            0.8941047229      1.4771770190     -1.3687888110 
  H7           -0.7977235026      1.4726613132     -1.4302507654 
  H8            0.8973671521     -1.4739170921     -1.3708752180 
  H9           -0.7948925390     -1.4765472287     -1.4283326348 
   
  principal moments of inertia:
        amu*angstrom^2:      100.72035      107.83492      115.24380
                g*cm^2: 1.67250063E-38 1.79064072E-38 1.91366803E-38
   
  rotational constants:
               cm^(-1):      0.16737063      0.15632811      0.14627797
                   GHz:      5.01764521      4.68659888      4.38530335
   
  nuclear repulsion energy.......     284.489601109 hartrees
  -------------------------------------------------
 /  end of geometry optimization iteration   5   /
 -------------------------------------------------
   
  Peak memory usage:    449 Mb
  
  end of program geopt
   
 Time(geopt)  user:        0.0  user+sys:        0.0  wallclock:        1.4
  
  start of program ch
  
  Moments from quantum mechanical wavefunction:
  Dipole Moments  (Debye)
     X=     0.2014     Y=     0.0010     Z=    -5.7040  Tot=     5.7075
  
  gridpoints used for charge fit         7838
    out of a possible maximum of         8096
  
   Electrostatic potential fitting constrained to reproduce
     total charge:                yes
     dipole moment:               yes
     traceless quadrupole moment: no 
     traceless octapole moment:   no 
  
  Atomic charges from electrostatic potential: 
   
 Atom       S1           O2           O3           N4           N5      
 Charge    0.97207     -0.42559     -0.42614     -0.73653     -0.73751
   
 Atom       H6           H7           H8           H9      
 Charge    0.33833      0.33824      0.33849      0.33865
  
  sum of atomic charges:     0.000000
   
 RMS Error   1.41E-03 hartrees
 
  
  Moments from electrostatic potential charges:
  Dipole Moments  (Debye)
     X=     0.2014     Y=     0.0010     Z=    -5.7040  Tot=     5.7075
  
  Peak memory usage:    757 Mb
  
  end of program ch
   
 Time(ch)  user:        0.0  user+sys:        0.0  wallclock:        2.3
  
  start of program cutabab2
  
  Peak memory usage:    553 Mb
  
  end of program cutabab2
   
 Time(cutabab2)  user:        1.0  user+sys:        1.0  wallclock:        1.4
  
  start of program der2a
  
  Peak memory usage:    600 Mb
  
  end of program der2a
   
 Time(der2a)  user:        0.0  user+sys:        0.0  wallclock:        0.9
  
  start of program der2b
  
  Peak memory usage:    963 Mb
  
  end of program der2b
   
 Time(der2b)  user:      301.0  user+sys:      322.0  wallclock:      323.6
  
  start of program der2nda
  
 
  Peak memory usage:    599 Mb
  
  end of program der2nda
   
 Time(der2nda)  user:        0.0  user+sys:        0.0  wallclock:        0.9
  
  start of program der2ndb
  
  Peak memory usage:    793 Mb
  
  end of program der2ndb
   
 Time(der2ndb)  user:      892.0  user+sys:      955.0  wallclock:      958.6
  
  start of program rwr
  
  Peak memory usage:    748 Mb
  
  end of program rwr
   
 Time(rwr)  user:        1.0  user+sys:        1.0  wallclock:        3.4
  
  start of program cphfa
  
       1  vectors produced in CPHF
  
     v    i  j  k  i  g
     e    t  c  c  c  r
     c    e  o  o  u  i
     t    r  r  r  t  d       RMS  
  
     1    1  0  0  6  M     1.6E-02
     1    2  0  0  6  M     9.1E-04
     1    3  0  0  6  M     3.8E-04
     1    4  0  0  6  M     1.1E-04
     1    5  0  0  6  M     3.5E-05
  
  
  Atomic Polar Tensors (au): Total
  =========================
  
  APT for atom S1      
  --------------------------------------
        2.1873       0.0000       0.0006
       -0.0002       2.4711      -0.0005
        0.0004      -0.0003       2.1738
  --------------------------------------
  
  APT for atom O2      
  --------------------------------------
       -1.0198      -0.0005      -0.3434
       -0.0006      -0.6071      -0.0004
       -0.2305       0.0000      -0.7550
  --------------------------------------
  
  APT for atom O3      
  --------------------------------------
       -1.0592      -0.0008       0.3226
       -0.0010      -0.6077       0.0007
        0.2099       0.0003      -0.7178
  --------------------------------------
  
  APT for atom N4      
  --------------------------------------
       -0.3802      -0.0069       0.0084
       -0.0062      -1.1138       0.2193
        0.0085       0.2422      -0.6308
  --------------------------------------
  
  APT for atom N5      
  --------------------------------------
       -0.3811       0.0091       0.0087
        0.0087      -1.1149      -0.2189
        0.0089      -0.2421      -0.6319
  --------------------------------------
  
  APT for atom H6      
  --------------------------------------
        0.1612       0.0739       0.0138
        0.0471       0.2432       0.0289
        0.0330       0.0670       0.1419
  --------------------------------------
  
  APT for atom H7      
  --------------------------------------
        0.1648      -0.0789      -0.0124
       -0.0493       0.2425       0.0254
       -0.0319       0.0615       0.1385
  --------------------------------------
  
  APT for atom H8      
  --------------------------------------
        0.1619      -0.0744       0.0137
       -0.0473       0.2431      -0.0289
        0.0333      -0.0669       0.1422
  --------------------------------------
  
  APT for atom H9      
  --------------------------------------
        0.1646       0.0785      -0.0120
        0.0490       0.2433      -0.0257
       -0.0315      -0.0619       0.1391
  --------------------------------------
  
  Peak memory usage:    860 Mb
  
  end of program cphfa
   
 Time(cphfa)  user:      282.0  user+sys:      288.0  wallclock:      293.9
  
  start of program freq
  
   
  harmonic frequencies in cm**-1, reduced masses in amu,
  force constants in mDyne/A, and
  normal modes in cartesian coordinates:
  IR intensities in km/mol
  
  frequencies       209.82   303.03   326.43   443.76   459.23   496.08
  intensities         0.00     2.35    23.19     0.00    24.52   201.53
  reduc. mass         0.32     1.85     0.42     1.96     1.54     0.69
  force const         0.01     0.10     0.03     0.23     0.19     0.10
    S1       X     0.00011 -0.00108 -0.03843  0.00090  0.06529 -0.00009
    S1       Y     0.00000  0.00000 -0.00005  0.00009  0.00011  0.02369
    S1       Z    -0.00002  0.02946 -0.00141  0.00000  0.00205  0.00001
    O2       X     0.00014 -0.03332  0.00439  0.00045  0.02562  0.00012
    O2       Y    -0.06277 -0.00027 -0.00082 -0.11500  0.00117 -0.06544
    O2       Z     0.00004  0.07817 -0.06891  0.00112  0.07828 -0.00011
    O3       X    -0.00027  0.02790 -0.00045  0.00019  0.03135  0.00003
    O3       Y     0.06280  0.00022  0.00075  0.11471 -0.00123 -0.06570
    O3       Z    -0.00053  0.08055  0.06872 -0.00111 -0.07595 -0.00003
    N4       X    -0.04193  0.00342  0.00851 -0.09941 -0.09832  0.00058
    N4       Y     0.00015 -0.07367  0.00022 -0.00003  0.00005  0.09295
    N4       Z    -0.00107 -0.10170  0.00043 -0.00349 -0.00344 -0.01824
    N5       X     0.04225  0.00352  0.00976  0.09699 -0.10040 -0.00077
    N5       Y    -0.00013  0.07381 -0.00010  0.00020 -0.00014  0.09296
    N5       Z     0.00169 -0.10170  0.00059  0.00343 -0.00343  0.01827
    H6       X    -0.23351 -0.00721  0.21080 -0.02937 -0.05895 -0.04744
    H6       Y    -0.15728 -0.22169  0.12828  0.22401  0.26775 -0.31368
    H6       Z    -0.35744 -0.15734  0.36804  0.16339  0.12149 -0.21620
    H7       X    -0.25961  0.01882  0.23753 -0.01624 -0.04851  0.06444
    H7       Y     0.15656 -0.22238 -0.12630 -0.22360 -0.26692 -0.31243
    H7       Z     0.34027 -0.15648 -0.35129 -0.16483 -0.12514 -0.21116
    H8       X     0.23218 -0.00678  0.21521  0.02551 -0.05733  0.04895
    H8       Y    -0.15445  0.22089 -0.12844  0.21802 -0.27419 -0.31340
    H8       Z     0.35235 -0.15549  0.37141 -0.16267  0.12719  0.21597
    H9       X     0.25500  0.01910  0.23926  0.01498 -0.04970 -0.06282
    H9       Y     0.15438  0.22206  0.12763 -0.21887  0.27220 -0.31370
    H9       Z    -0.33516 -0.15795 -0.35485  0.16474 -0.13002  0.21267
  
  frequencies       507.12   582.09   593.40   847.43   850.55  1036.54
  intensities        25.62   246.61     4.23    76.61   166.80     0.00
  reduc. mass         3.79     2.43     2.00     2.62     7.90     0.31
  force const         0.57     0.48     0.41     1.11     3.37     0.20
    S1       X     0.00249 -0.00013  0.00049 -0.00265  0.00016  0.00008
    S1       Y    -0.00004  0.07444  0.00060  0.00182 -0.12034 -0.00005
    S1       Z    -0.07626  0.00004 -0.01571  0.07656  0.00111 -0.00005
    O2       X    -0.10067  0.00012 -0.01348  0.06219  0.00089  0.00007
    O2       Y    -0.00013 -0.10290 -0.00072 -0.00018  0.01660  0.01557
    O2       Z     0.08534 -0.00003  0.01002  0.01881  0.00030  0.00016
    O3       X     0.09443  0.00017  0.01269 -0.06336 -0.00099  0.00031
    O3       Y     0.00020 -0.10303 -0.00069 -0.00041  0.01664 -0.01555
    O3       Z     0.09236 -0.00002  0.01102  0.01453  0.00023 -0.00024
    N4       X     0.00062  0.00351  0.00120  0.00360  0.00233  0.06902
    N4       Y     0.07518  0.00094 -0.13562  0.06756  0.09443  0.00020
    N4       Z    -0.01469 -0.09713 -0.02193 -0.10303 -0.07247  0.00255
    N5       X     0.00084 -0.00339  0.00055  0.00367 -0.00249 -0.06982
    N5       Y    -0.07513 -0.00095  0.13538 -0.07035  0.09259 -0.00011
    N5       Z    -0.01483  0.09750 -0.02072 -0.10506  0.06936 -0.00231
    H6       X     0.00152  0.03965  0.05386  0.02725 -0.00608 -0.10168
    H6       Y     0.14982  0.22480  0.27270  0.24015  0.17634  0.40483
    H6       Z     0.00175  0.03022  0.19127 -0.01482 -0.07297 -0.19056
    H7       X    -0.00232 -0.04334 -0.06950 -0.02781  0.01038 -0.11291
    H7       Y     0.15174  0.22473  0.27282  0.23928  0.17700 -0.40564
    H7       Z     0.00267  0.02781  0.18766 -0.01621 -0.07236  0.18250
    H8       X     0.00230 -0.04153  0.05501  0.02812  0.00647  0.10148
    H8       Y    -0.15065  0.22851 -0.26920 -0.24431  0.16921  0.40941
    H8       Z     0.00232 -0.03310  0.19123 -0.01677  0.07274  0.19205
    H9       X    -0.00164  0.04301 -0.06672 -0.02603 -0.01189  0.11551
    H9       Y    -0.15158  0.22898 -0.26975 -0.24451  0.16904 -0.40878
    H9       Z     0.00251 -0.03061  0.18693 -0.01875  0.07211 -0.18460
  
  frequencies      1105.71  1219.26  1466.38  1546.75  1554.67  3509.04
  intensities         0.62   161.25   283.88    25.22    71.13    26.46
  reduc. mass         0.38     6.38     9.14     0.28     0.27     0.24
  force const         0.27     5.59    11.58     0.39     0.39     1.77
    S1       X    -0.00976 -0.00304 -0.12193 -0.00008  0.00000  0.00000
    S1       Y    -0.00007 -0.00003 -0.00021  0.01218 -0.00061 -0.00096
    S1       Z    -0.00032  0.08968 -0.00418  0.00007  0.00091 -0.00002
    O2       X    -0.04013 -0.12597  0.10871 -0.00044 -0.00963  0.00001
    O2       Y     0.00005 -0.00018  0.00016 -0.00293  0.00013 -0.00002
    O2       Z    -0.04288 -0.08328  0.05819 -0.00020 -0.00423  0.00002
    O3       X    -0.04271  0.13140  0.11254  0.00055  0.00984 -0.00001
    O3       Y    -0.00014  0.00023  0.00019 -0.00294  0.00017 -0.00002
    O3       Z     0.03990 -0.07448 -0.05063 -0.00020 -0.00355  0.00001
    N4       X     0.07142  0.00027  0.01619 -0.00152  0.00163  0.00124
    N4       Y     0.00017  0.00524  0.00006 -0.03634  0.03877  0.01027
    N4       Z     0.00259 -0.00989  0.00054  0.04464 -0.04756 -0.03694
    N5       X     0.07074  0.00030  0.01616  0.00175  0.00152 -0.00114
    N5       Y     0.00013 -0.00521  0.00004 -0.04003 -0.03498  0.00972
    N5       Z     0.00245 -0.00988  0.00058 -0.04916 -0.04291  0.03493
    H6       X    -0.08328 -0.01207 -0.02179 -0.24101  0.26622 -0.43505
    H6       Y     0.38983  0.04301  0.07306  0.18154 -0.20378 -0.06429
    H6       Z    -0.16774 -0.01685 -0.04016 -0.32890  0.36475  0.24031
    H7       X    -0.09302  0.01328 -0.02462  0.26330 -0.29095  0.41781
    H7       Y    -0.39027  0.04391 -0.07334  0.18298 -0.20536 -0.06215
    H7       Z     0.16112 -0.01636  0.03893 -0.31064  0.34462  0.27197
    H8       X    -0.08124 -0.01209 -0.02180  0.26632  0.24107  0.41103
    H8       Y    -0.38571 -0.04333 -0.07300  0.20215  0.18591 -0.05932
    H8       Z    -0.16562 -0.01704 -0.04038  0.36263  0.32961 -0.22816
    H9       X    -0.09338  0.01342 -0.02457 -0.29101 -0.26348 -0.39520
    H9       Y     0.38566 -0.04364  0.07288  0.20139  0.18519 -0.06070
    H9       Z     0.15958 -0.01632  0.03866  0.34383  0.31253 -0.25603
  
  frequencies      3514.06  3632.49  3634.18
  intensities        24.50     2.91    71.05
  reduc. mass         0.24     0.31     0.31
  force const         1.78     2.38     2.38
    S1       X     0.00002  0.00017 -0.00084
    S1       Y     0.00003  0.00000  0.00000
    S1       Z    -0.00072  0.00001 -0.00003
    O2       X     0.00038 -0.00011  0.00054
    O2       Y     0.00000  0.00001  0.00000
    O2       Z     0.00052 -0.00006  0.00031
    O3       X    -0.00042 -0.00011  0.00056
    O3       Y     0.00000 -0.00001  0.00000
    O3       Z     0.00050  0.00006 -0.00028
    N4       X     0.00115  0.06681 -0.04418
    N4       Y     0.01036  0.00019 -0.00013
    N4       Z    -0.03457  0.00237 -0.00157
    N5       X     0.00119 -0.04421 -0.06681
    N5       Y    -0.01097 -0.00006 -0.00009
    N5       Z    -0.03658 -0.00147 -0.00222
    H6       X    -0.41133 -0.47835  0.31640
    H6       Y    -0.06189 -0.06483  0.04295
    H6       Z     0.22680  0.28614 -0.18935
    H7       X     0.39513 -0.45545  0.30119
    H7       Y    -0.05990  0.06216 -0.04118
    H7       Z     0.25677 -0.31928  0.21124
    H8       X    -0.43491  0.31612  0.47787
    H8       Y     0.06395 -0.04179 -0.06330
    H8       Z     0.24098 -0.18979 -0.28706
    H9       X     0.41825  0.30174  0.45605
    H9       Y     0.06542  0.04267  0.06461
    H9       Z     0.27052  0.21037  0.31811
  
  Number of imaginary frequencies:   0
   
  Writing vibrational animation data to c2v1.vib
  Writing vibrational spectrum data to c2v1_vib.spm
  
  Thermochemical properties at    1.0000 atm
  
  rotational symmetry number:  1

  rotational temperatures (K):      0.240809      0.224921      0.210461
   
  vibrational temperatures:
       mode:      1        2        3        4        5        6
  temp. (K):   301.88   436.00   469.65   638.46   660.73   713.75
   
       mode:      7        8        9       10       11       12
  temp. (K):   729.63   837.50   853.77  1219.26  1223.74  1491.35
   
       mode:     13       14       15       16       17       18
  temp. (K):  1590.87  1754.25  2109.79  2225.43  2236.82  5048.72
   
       mode:     19       20       21
  temp. (K):  5055.95  5226.34  5228.76
   
   
  Thermodynamic properties calculated assuming an ideal gas

  In the table below, the units for temperature
  are kelvins, the units for U, H, and G are
  kcal/mol and the units for Cv and S are cal/(mol K)

  The zero point energy (ZPE):     39.796 kcal/mol
  is not included in U, H, or G in the table below


  T =   298.15 K
   
              U         Cv          S          H          G        ln(Q)
          ---------  ---------  ---------  ---------  ---------  ---------
  trans.      0.889      2.981     39.596      1.481    -10.324   17.42564
    rot.      0.889      2.981     25.547      0.889     -6.728   11.35587
    vib.      1.802     14.603      9.112      1.802     -0.915    1.54435
   elec.      0.000      0.000      0.000      0.000      0.000    0.00000
   total      3.579     20.565     74.255      4.172    -17.968   30.32585
   
  Total internal energy, Utot (SCFE + ZPE + U):    -660.395380 hartrees
              Total enthalpy, Htot (Utot + pV):    -660.394436 hartrees
    Total Gibbs free energy, Gtot (Htot - T*S):    -660.429717 hartrees
   
  Peak memory usage:    449 Mb
  
  end of program freq
   
 Time(freq)  user:        0.0  user+sys:        0.0  wallclock:        1.1
  
  start of program post
  
  Peak memory usage:    488 Mb
  
  end of program post
   
 Time(post)  user:        0.0  user+sys:        0.0  wallclock:        0.8

 *********************************** NBO 6.0 ***********************************
             N A T U R A L   A T O M I C   O R B I T A L   A N D
          N A T U R A L   B O N D   O R B I T A L   A N A L Y S I S
 ************************* Schrodinger,  Inc. (100193) *************************
  (c) Copyright 1996-2013 Board of Regents of the University of Wisconsin System
      on behalf of the Theoretical Chemistry Institute.  All rights reserved.

          Cite this program as:

          NBO 6.0.  E. D. Glendening, J. K. Badenhoop, A. E. Reed,
          J. E. Carpenter, J. A. Bohmann, C. M. Morales, C. R. Landis,
          and F. Weinhold (Theoretical Chemistry Institute, University
          of Wisconsin, Madison, WI, 2013); http://nbo6.chem.wisc.edu/

       /NRT    / : Natural Resonance Theory Analysis
       /PRINT  / : Print level set to 3

 Filename set to FILE

 Job title:  c2v1:  Input generated by Jaguar v8.1


 Atom distance matrix: (Angstroms)

     Atom    1       2       3       4       5       6       7       8       9
     ---- ------  ------  ------  ------  ------  ------  ------  ------  ------
   1.  S  0.0000  1.4291  1.4292  1.6612  1.6612  2.2579  2.2581  2.2584  2.2583
   2.  O  1.4291  0.0000  2.5296  2.4609  2.4611  2.6403  3.3555  2.6418  3.3558
   3.  O  1.4292  2.5296  0.0000  2.4611  2.4608  3.3555  2.6424  3.3556  2.6411
   4.  N  1.6612  2.4609  2.4611  0.0000  2.7359  1.0114  1.0114  3.0159  3.0162
   5.  N  1.6612  2.4611  2.4608  2.7359  0.0000  3.0162  3.0143  1.0114  1.0114
   6.  H  2.2579  2.6403  3.3555  1.0114  3.0162  0.0000  1.6930  2.9511  3.4030
   7.  H  2.2581  3.3555  2.6424  1.0114  3.0143  1.6930  0.0000  3.3999  2.9492
   8.  H  2.2584  2.6418  3.3556  3.0159  1.0114  2.9511  3.3999  0.0000  1.6932
   9.  H  2.2583  3.3558  2.6411  3.0162  1.0114  3.4030  2.9492  1.6932  0.0000


 NATURAL POPULATIONS:  Natural atomic orbital occupancies

  NAO Atom No lang   Type(AO)    Occupancy      Energy
 ---------------------------------------------------------
   1    S  1  s      Cor( 1s)     2.00000     -87.94745
   2    S  1  s      Cor( 2s)     1.99951      -9.39699
   3    S  1  s      Val( 3s)     1.01303      -0.54878
   4    S  1  s      Ryd( 4s)     0.00369       1.10819
   5    S  1  s      Ryd( 5s)     0.00031       1.95556
   6    S  1  s      Ryd( 6s)     0.00003       3.16694
   7    S  1  s      Ryd( 7s)     0.00001       2.83209
   8    S  1  s      Ryd( 9s)     0.00000       2.57131
   9    S  1  s      Ryd( 8s)     0.00000       6.77627
  10    S  1  px     Cor( 2p)     1.99983      -6.16778
  11    S  1  px     Val( 3p)     0.72575      -0.12945
  12    S  1  px     Ryd( 4p)     0.01511       1.24189
  13    S  1  px     Ryd( 5p)     0.00005       2.82565
  14    S  1  px     Ryd( 6p)     0.00004       0.54453
  15    S  1  py     Cor( 2p)     1.99993      -6.17446
  16    S  1  py     Val( 3p)     0.82901      -0.18787
  17    S  1  py     Ryd( 4p)     0.00612       1.32147
  18    S  1  py     Ryd( 5p)     0.00031       1.23987
  19    S  1  py     Ryd( 6p)     0.00002       0.96720
  20    S  1  pz     Cor( 2p)     1.99993      -6.17297
  21    S  1  pz     Val( 3p)     0.82761      -0.19648
  22    S  1  pz     Ryd( 4p)     0.00543       1.17738
  23    S  1  pz     Ryd( 5p)     0.00011       1.95360
  24    S  1  pz     Ryd( 6p)     0.00004       0.85507
  25    S  1  dxy    Ryd( 3d)     0.03966       0.87193
  26    S  1  dxy    Ryd( 4d)     0.00097       0.72469
  27    S  1  dxy    Ryd( 5d)     0.00002       2.30091
  28    S  1  dxz    Ryd( 3d)     0.03325       1.08242
  29    S  1  dxz    Ryd( 5d)     0.00005       1.05808
  30    S  1  dxz    Ryd( 4d)     0.00041       1.83977
  31    S  1  dyz    Ryd( 3d)     0.03463       0.98985
  32    S  1  dyz    Ryd( 4d)     0.00021       0.59154
  33    S  1  dyz    Ryd( 5d)     0.00002       1.87896
  34    S  1  dx2y2  Ryd( 3d)     0.03622       1.10853
  35    S  1  dx2y2  Ryd( 5d)     0.00018       1.09899
  36    S  1  dx2y2  Ryd( 4d)     0.00032       1.79268
  37    S  1  dz2    Ryd( 3d)     0.03526       0.83475
  38    S  1  dz2    Ryd( 4d)     0.00025       0.75311
  39    S  1  dz2    Ryd( 5d)     0.00021       2.05621

  40    O  2  s      Cor( 1s)     1.99984     -18.97391
  41    O  2  s      Val( 2s)     1.81692      -1.03812
  42    O  2  s      Ryd( 3s)     0.00077       2.57833
  43    O  2  s      Ryd( 4s)     0.00010       5.30176
  44    O  2  s      Ryd( 5s)     0.00006       4.66035
  45    O  2  s      Ryd( 6s)     0.00005       4.22185
  46    O  2  s      Ryd( 7s)     0.00000       3.36841
  47    O  2  s      Ryd( 8s)     0.00000      15.21890
  48    O  2  px     Val( 2p)     1.55996      -0.34975
  49    O  2  px     Ryd( 3p)     0.00069       0.96346
  50    O  2  px     Ryd( 4p)     0.00026       0.72482
  51    O  2  px     Ryd( 5p)     0.00009       4.28309
  52    O  2  py     Val( 2p)     1.80041      -0.31243
  53    O  2  py     Ryd( 3p)     0.00123       0.75869
  54    O  2  py     Ryd( 4p)     0.00004       0.58753
  55    O  2  py     Ryd( 5p)     0.00000       4.00641
  56    O  2  pz     Val( 2p)     1.70276      -0.32347
  57    O  2  pz     Ryd( 3p)     0.00079       0.74578
  58    O  2  pz     Ryd( 4p)     0.00009       0.69853
  59    O  2  pz     Ryd( 5p)     0.00003       4.08626
  60    O  2  dxy    Ryd( 3d)     0.00856       1.40966
  61    O  2  dxy    Ryd( 4d)     0.00002       1.51272
  62    O  2  dxy    Ryd( 5d)     0.00001       6.67716
  63    O  2  dxz    Ryd( 3d)     0.01072       1.55833
  64    O  2  dxz    Ryd( 4d)     0.00011       2.00939
  65    O  2  dxz    Ryd( 5d)     0.00001       6.74496
  66    O  2  dyz    Ryd( 3d)     0.00334       1.29264
  67    O  2  dyz    Ryd( 4d)     0.00002       1.55884
  68    O  2  dyz    Ryd( 5d)     0.00001       6.72856
  69    O  2  dx2y2  Ryd( 3d)     0.00757       1.45872
  70    O  2  dx2y2  Ryd( 4d)     0.00008       1.82949
  71    O  2  dx2y2  Ryd( 5d)     0.00001       6.74103
  72    O  2  dz2    Ryd( 3d)     0.00844       1.34043
  73    O  2  dz2    Ryd( 4d)     0.00003       1.51081
  74    O  2  dz2    Ryd( 5d)     0.00001       6.66626

  75    O  3  s      Cor( 1s)     1.99984     -18.97290
  76    O  3  s      Val( 2s)     1.81695      -1.03760
  77    O  3  s      Ryd( 3s)     0.00077       2.57952
  78    O  3  s      Ryd( 4s)     0.00010       5.29439
  79    O  3  s      Ryd( 5s)     0.00006       4.62961
  80    O  3  s      Ryd( 6s)     0.00005       4.26238
  81    O  3  s      Ryd( 7s)     0.00000       3.37115
  82    O  3  s      Ryd( 8s)     0.00000      15.21580
  83    O  3  px     Val( 2p)     1.54418      -0.35185
  84    O  3  px     Ryd( 3p)     0.00066       0.96363
  85    O  3  px     Ryd( 4p)     0.00027       0.73559
  86    O  3  px     Ryd( 5p)     0.00009       4.31155
  87    O  3  py     Val( 2p)     1.80060      -0.31195
  88    O  3  py     Ryd( 3p)     0.00123       0.75903
  89    O  3  py     Ryd( 4p)     0.00004       0.58755
  90    O  3  py     Ryd( 5p)     0.00000       4.00715
  91    O  3  pz     Val( 2p)     1.71878      -0.32037
  92    O  3  pz     Ryd( 3p)     0.00082       0.74583
  93    O  3  pz     Ryd( 4p)     0.00008       0.68770
  94    O  3  pz     Ryd( 5p)     0.00003       4.05916
  95    O  3  dxy    Ryd( 3d)     0.00923       1.42638
  96    O  3  dxy    Ryd( 4d)     0.00002       1.51158
  97    O  3  dxy    Ryd( 5d)     0.00001       6.68441
  98    O  3  dxz    Ryd( 3d)     0.01078       1.54746
  99    O  3  dxz    Ryd( 4d)     0.00010       1.92328
 100    O  3  dxz    Ryd( 5d)     0.00001       6.73701
 101    O  3  dyz    Ryd( 3d)     0.00266       1.27684
 102    O  3  dyz    Ryd( 4d)     0.00002       1.56034
 103    O  3  dyz    Ryd( 5d)     0.00001       6.72233
 104    O  3  dx2y2  Ryd( 3d)     0.00820       1.48330
 105    O  3  dx2y2  Ryd( 4d)     0.00009       1.87884
 106    O  3  dx2y2  Ryd( 5d)     0.00001       6.74862
 107    O  3  dz2    Ryd( 3d)     0.00773       1.32812
 108    O  3  dz2    Ryd( 4d)     0.00004       1.54757
 109    O  3  dz2    Ryd( 5d)     0.00001       6.66818

 110    N  4  s      Cor( 1s)     1.99961     -14.28190
 111    N  4  s      Val( 2s)     1.50579      -0.71419
 112    N  4  s      Ryd( 3s)     0.00163       1.59438
 113    N  4  s      Ryd( 4s)     0.00008       3.28614
 114    N  4  s      Ryd( 5s)     0.00001       2.91141
 115    N  4  s      Ryd( 6s)     0.00000       7.03724
 116    N  4  s      Ryd( 8s)     0.00000       3.48175
 117    N  4  s      Ryd( 7s)     0.00000       8.68716
 118    N  4  px     Val( 2p)     1.38522      -0.26346
 119    N  4  px     Ryd( 3p)     0.00249       0.88704
 120    N  4  px     Ryd( 4p)     0.00005       2.98952
 121    N  4  px     Ryd( 5p)     0.00001       1.31950
 122    N  4  py     Val( 2p)     1.57181      -0.31729
 123    N  4  py     Ryd( 3p)     0.00164       0.85282
 124    N  4  py     Ryd( 4p)     0.00012       2.85845
 125    N  4  py     Ryd( 5p)     0.00004       1.23417
 126    N  4  pz     Val( 2p)     1.56190      -0.29588
 127    N  4  pz     Ryd( 3p)     0.00150       0.83004
 128    N  4  pz     Ryd( 4p)     0.00005       2.84250
 129    N  4  pz     Ryd( 5p)     0.00002       1.40847
 130    N  4  dxy    Ryd( 3d)     0.00205       1.06809
 131    N  4  dxy    Ryd( 4d)     0.00011       1.23411
 132    N  4  dxy    Ryd( 5d)     0.00001       4.82064
 133    N  4  dxz    Ryd( 3d)     0.00540       1.40773
 134    N  4  dxz    Ryd( 4d)     0.00003       1.52802
 135    N  4  dxz    Ryd( 5d)     0.00003       5.11708
 136    N  4  dyz    Ryd( 3d)     0.00634       1.31570
 137    N  4  dyz    Ryd( 4d)     0.00027       1.07008
 138    N  4  dyz    Ryd( 5d)     0.00002       4.93287
 139    N  4  dx2y2  Ryd( 3d)     0.00620       1.42698
 140    N  4  dx2y2  Ryd( 4d)     0.00014       1.27596
 141    N  4  dx2y2  Ryd( 5d)     0.00001       4.99875
 142    N  4  dz2    Ryd( 3d)     0.00120       1.06510
 143    N  4  dz2    Ryd( 4d)     0.00008       1.16043
 144    N  4  dz2    Ryd( 5d)     0.00001       4.79244

 145    N  5  s      Cor( 1s)     1.99961     -14.28124
 146    N  5  s      Val( 2s)     1.50575      -0.71383
 147    N  5  s      Ryd( 3s)     0.00162       1.59396
 148    N  5  s      Ryd( 4s)     0.00008       3.28690
 149    N  5  s      Ryd( 5s)     0.00001       2.93578
 150    N  5  s      Ryd( 6s)     0.00000       7.04063
 151    N  5  s      Ryd( 8s)     0.00000       3.47211
 152    N  5  s      Ryd( 7s)     0.00000       8.67452
 153    N  5  px     Val( 2p)     1.38533      -0.26316
 154    N  5  px     Ryd( 3p)     0.00248       0.88743
 155    N  5  px     Ryd( 4p)     0.00005       2.99079
 156    N  5  px     Ryd( 5p)     0.00001       1.31864
 157    N  5  py     Val( 2p)     1.57205      -0.31698
 158    N  5  py     Ryd( 3p)     0.00164       0.85296
 159    N  5  py     Ryd( 4p)     0.00012       2.85950
 160    N  5  py     Ryd( 5p)     0.00004       1.23329
 161    N  5  pz     Val( 2p)     1.56231      -0.29562
 162    N  5  pz     Ryd( 3p)     0.00150       0.83011
 163    N  5  pz     Ryd( 4p)     0.00005       2.84310
 164    N  5  pz     Ryd( 5p)     0.00002       1.40737
 165    N  5  dxy    Ryd( 3d)     0.00205       1.06852
 166    N  5  dxy    Ryd( 4d)     0.00011       1.23459
 167    N  5  dxy    Ryd( 5d)     0.00001       4.82074
 168    N  5  dxz    Ryd( 3d)     0.00540       1.40793
 169    N  5  dxz    Ryd( 4d)     0.00003       1.52820
 170    N  5  dxz    Ryd( 5d)     0.00003       5.11692
 171    N  5  dyz    Ryd( 3d)     0.00633       1.31628
 172    N  5  dyz    Ryd( 4d)     0.00027       1.07006
 173    N  5  dyz    Ryd( 5d)     0.00002       4.93350
 174    N  5  dx2y2  Ryd( 3d)     0.00619       1.42738
 175    N  5  dx2y2  Ryd( 4d)     0.00014       1.27658
 176    N  5  dx2y2  Ryd( 5d)     0.00001       4.99895
 177    N  5  dz2    Ryd( 3d)     0.00120       1.06546
 178    N  5  dz2    Ryd( 4d)     0.00008       1.16058
 179    N  5  dz2    Ryd( 5d)     0.00001       4.79254

 180    H  6  s      Val( 1s)     0.60561       0.03827
 181    H  6  s      Ryd( 2s)     0.00046       1.67315
 182    H  6  s      Ryd( 3s)     0.00022       0.70557
 183    H  6  s      Ryd( 4s)     0.00005       0.92614
 184    H  6  px     Ryd( 2p)     0.00064       0.80643
 185    H  6  px     Ryd( 3p)     0.00021       3.85180
 186    H  6  px     Ryd( 4p)     0.00012       1.52140
 187    H  6  py     Ryd( 2p)     0.00075       0.62652
 188    H  6  py     Ryd( 3p)     0.00020       3.57268
 189    H  6  py     Ryd( 4p)     0.00007       1.23641
 190    H  6  pz     Ryd( 2p)     0.00081       0.64513
 191    H  6  pz     Ryd( 3p)     0.00022       3.63406
 192    H  6  pz     Ryd( 4p)     0.00007       1.32092

 193    H  7  s      Val( 1s)     0.60570       0.03821
 194    H  7  s      Ryd( 2s)     0.00046       1.67359
 195    H  7  s      Ryd( 3s)     0.00022       0.70489
 196    H  7  s      Ryd( 4s)     0.00005       0.92667
 197    H  7  px     Ryd( 2p)     0.00061       0.78593
 198    H  7  px     Ryd( 3p)     0.00020       3.82843
 199    H  7  px     Ryd( 4p)     0.00011       1.49764
 200    H  7  py     Ryd( 2p)     0.00075       0.62656
 201    H  7  py     Ryd( 3p)     0.00020       3.57081
 202    H  7  py     Ryd( 4p)     0.00007       1.23807
 203    H  7  pz     Ryd( 2p)     0.00083       0.66533
 204    H  7  pz     Ryd( 3p)     0.00023       3.65492
 205    H  7  pz     Ryd( 4p)     0.00007       1.34865

 206    H  8  s      Val( 1s)     0.60548       0.03839
 207    H  8  s      Ryd( 2s)     0.00046       1.67355
 208    H  8  s      Ryd( 3s)     0.00022       0.70433
 209    H  8  s      Ryd( 4s)     0.00005       0.92744
 210    H  8  px     Ryd( 2p)     0.00063       0.80677
 211    H  8  px     Ryd( 3p)     0.00021       3.85037
 212    H  8  px     Ryd( 4p)     0.00012       1.52179
 213    H  8  py     Ryd( 2p)     0.00075       0.62724
 214    H  8  py     Ryd( 3p)     0.00020       3.57140
 215    H  8  py     Ryd( 4p)     0.00007       1.23675
 216    H  8  pz     Ryd( 2p)     0.00081       0.64646
 217    H  8  pz     Ryd( 3p)     0.00022       3.63364
 218    H  8  pz     Ryd( 4p)     0.00007       1.32184

 219    H  9  s      Val( 1s)     0.60548       0.03839
 220    H  9  s      Ryd( 2s)     0.00046       1.67343
 221    H  9  s      Ryd( 3s)     0.00022       0.70532
 222    H  9  s      Ryd( 4s)     0.00005       0.92659
 223    H  9  px     Ryd( 2p)     0.00061       0.78767
 224    H  9  px     Ryd( 3p)     0.00020       3.82979
 225    H  9  px     Ryd( 4p)     0.00011       1.49649
 226    H  9  py     Ryd( 2p)     0.00075       0.62710
 227    H  9  py     Ryd( 3p)     0.00020       3.57193
 228    H  9  py     Ryd( 4p)     0.00007       1.23654
 229    H  9  pz     Ryd( 2p)     0.00083       0.66534
 230    H  9  pz     Ryd( 3p)     0.00023       3.65479
 231    H  9  pz     Ryd( 4p)     0.00007       1.34621

     Population inversion found on atom  S  1
     Population inversion found on atom  O  2
     Population inversion found on atom  O  3
     Population inversion found on atom  N  4
     Population inversion found on atom  N  5
     Population inversion found on atom  H  6
     Population inversion found on atom  H  7
     Population inversion found on atom  H  8
     Population inversion found on atom  H  9


 Summary of Natural Population Analysis:

                                     Natural Population
             Natural    ---------------------------------------------
  Atom No    Charge        Core      Valence    Rydberg      Total
 --------------------------------------------------------------------
    S  1    2.39246      9.99920     3.39540    0.21294    13.60754
    O  2   -0.92303      1.99984     6.88005    0.04314     8.92303
    O  3   -0.92347      1.99984     6.88051    0.04312     8.92347
    N  4   -1.05389      1.99961     6.02472    0.02955     8.05389
    N  5   -1.05457      1.99961     6.02544    0.02951     8.05457
[...]
                                             deloc  40: -0.04  0.00  0.02  0.04
                                             deloc  34:  0.02  0.00  0.01  0.03

  14. LP ( 2) O 3             7.96  0.01 -4.37  9.08    10.68  0.02 -5.88 12.19
                                             deloc  29: -0.71  0.08  0.46  0.85
                                             deloc  28: -0.71 -0.08  0.46  0.85
                                             deloc  37: -0.45  0.00  0.26  0.52
                                             deloc  35: -0.47  0.00  0.02  0.47
                                             deloc  32: -0.09  0.08  0.09  0.15
                                             deloc  30: -0.09 -0.08  0.09  0.15
                                             deloc  11: -0.10  0.00  0.02  0.10
                                             deloc 154: -0.03  0.02  0.04  0.06
                                             deloc 124: -0.03 -0.02  0.04  0.06

  15. LP ( 3) O 3             7.83  0.01 -3.91  8.75    10.88  0.02 -5.50 12.19
                                             deloc  26: -1.39  0.00  0.60  1.51
                                             deloc  34: -0.60  0.00  0.14  0.62
                                             deloc  36: -0.22  0.00  0.48  0.53
                                             deloc  28: -0.27 -0.04  0.10  0.30
                                             deloc  29: -0.27  0.04  0.10  0.30
                                             deloc  12: -0.11  0.00  0.00  0.11
                                             deloc  30: -0.03 -0.03  0.04  0.06
                                             deloc  32: -0.03  0.03  0.04  0.06
                                             deloc  38: -0.04  0.00  0.00  0.04
                                             deloc  39: -0.01  0.00 -0.02  0.02
                                             deloc 197:  0.01 -0.01  0.02  0.02
                                             deloc 221:  0.01  0.01  0.02  0.02

  16. LP ( 1) N 4            -0.10-13.74  3.54 14.19    -0.12-15.28  4.04 15.81
                                             deloc  29:  0.01  0.64 -0.22  0.67
                                             deloc  38:  0.00  0.45 -0.12  0.46
                                             deloc  27: -0.01  0.12 -0.03  0.13
                                             deloc  26:  0.01  0.12 -0.03  0.12
                                             deloc  35:  0.00 -0.01 -0.08  0.08
                                             deloc 184: -0.06  0.01  0.05  0.07
                                             deloc 196:  0.05  0.01  0.05  0.07
                                             deloc  14:  0.02  0.05 -0.03  0.06
                                             deloc  11: -0.02  0.05 -0.03  0.06
                                             deloc  31: -0.03  0.01 -0.01  0.03
                                             deloc 156:  0.00  0.03  0.00  0.03
                                             deloc  30:  0.03  0.01 -0.01  0.03
                                             deloc  34:  0.00  0.03 -0.01  0.03
                                             deloc  22: -0.01 -0.02 -0.01  0.02
                                             deloc  23:  0.01 -0.02 -0.01  0.02

  17. LP ( 1) N 5            -0.15 13.73  3.55 14.19    -0.17 15.28  4.05 15.81
                                             deloc  28:  0.01 -0.64 -0.22  0.67
                                             deloc  38:  0.00 -0.44 -0.12  0.46
                                             deloc  26:  0.01 -0.12 -0.03  0.12
                                             deloc  27: -0.01 -0.12 -0.03  0.12
                                             deloc  35:  0.00  0.01 -0.08  0.08
                                             deloc 220:  0.05 -0.01  0.05  0.07
                                             deloc 208: -0.06 -0.01  0.05  0.07
                                             deloc  11: -0.02 -0.05 -0.03  0.06
                                             deloc  14:  0.02 -0.05 -0.03  0.06
                                             deloc 126:  0.00 -0.03  0.00  0.03
                                             deloc  32:  0.03 -0.01 -0.01  0.03
                                             deloc  33: -0.03 -0.01 -0.01  0.03
                                             deloc  34:  0.00 -0.03 -0.01  0.03
                                             deloc  25:  0.01  0.02 -0.01  0.02
                                             deloc  24: -0.01  0.02 -0.01  0.02

  18. BD ( 1) S 1- O 2       -7.46 -0.01 -5.08  9.03    -7.59 -0.01 -5.29  9.25
                                             deloc  28: -0.03 -0.24  0.15  0.28
                                             deloc  29: -0.03  0.24  0.15  0.28
                                             deloc  27:  0.11  0.00 -0.11  0.15
                                             deloc  12:  0.02  0.00 -0.04  0.04
                                             deloc  33:  0.01  0.02  0.02  0.03
                                             deloc  31:  0.01 -0.02  0.02  0.03

  19. BD ( 1) S 1- O 3        7.77  0.01 -4.55  9.01     7.91  0.01 -4.75  9.23
                                             deloc  29:  0.02  0.24  0.15  0.28
                                             deloc  28:  0.02 -0.24  0.15  0.28
                                             deloc  26: -0.10  0.00 -0.11  0.15
                                             deloc  15: -0.02  0.00 -0.04  0.04
                                             deloc  30: -0.01 -0.02  0.02  0.03
                                             deloc  32: -0.01  0.02  0.02  0.03

  20. BD ( 1) S 1- N 4       -0.20 -7.63  5.70  9.53    -0.20 -7.91  5.71  9.76
                                             deloc  29: -0.01  0.28  0.25  0.38
                                             deloc  26: -0.23 -0.03 -0.13  0.27
                                             deloc  27:  0.24 -0.03 -0.12  0.27
                                             deloc  31:  0.07  0.01  0.03  0.08
                                             deloc  30: -0.07  0.01  0.03  0.08
                                             deloc  16:  0.00 -0.01 -0.02  0.02

  21. BD ( 1) S 1- N 5       -0.22  7.63  5.71  9.53    -0.22  7.91  5.72  9.76
                                             deloc  28: -0.01 -0.28  0.25  0.38
                                             deloc  27:  0.24  0.03 -0.12  0.27
                                             deloc  26: -0.23  0.03 -0.13  0.27
                                             deloc  32: -0.07 -0.01  0.03  0.08
                                             deloc  33:  0.07 -0.01  0.03  0.08
                                             deloc  17:  0.00  0.01 -0.02  0.02

  22. BD ( 1) N 4- H 6       -5.29-11.90 10.33 16.62    -5.28-12.12 10.48 16.87
                                             deloc  27:  0.04  0.10 -0.09  0.14
                                             deloc  28:  0.00  0.06 -0.04  0.08
                                             deloc  36:  0.01  0.03 -0.01  0.04
                                             deloc  39:  0.00 -0.02  0.01  0.03
                                             deloc 197: -0.02  0.00 -0.01  0.02
                                             deloc  38: -0.01  0.00 -0.02  0.02
                                             deloc  37:  0.01  0.02 -0.01  0.02

  23. BD ( 1) N 4- H 7        4.57-11.88 10.69 16.62     4.55-12.09 10.84 16.86
                                             deloc  26: -0.04  0.10 -0.09  0.14
                                             deloc  28:  0.01  0.07 -0.04  0.08
                                             deloc  36: -0.01  0.03 -0.01  0.04
                                             deloc  39:  0.00 -0.02  0.01  0.03
                                             deloc 185:  0.02  0.00 -0.01  0.02
                                             deloc  38:  0.01  0.00 -0.02  0.02
                                             deloc  37: -0.01  0.02 -0.01  0.02

  24. BD ( 1) N 5- H 8       -5.32 11.88 10.35 16.63    -5.31 12.10 10.50 16.87
                                             deloc  27:  0.04 -0.10 -0.09  0.14
                                             deloc  29:  0.00 -0.07 -0.04  0.08
                                             deloc  36:  0.01 -0.03 -0.01  0.04
                                             deloc  39:  0.00  0.02  0.01  0.03
                                             deloc 221: -0.02  0.00 -0.01  0.02
                                             deloc  38: -0.01  0.00 -0.02  0.02
                                             deloc  37:  0.01 -0.02 -0.01  0.02

  25. BD ( 1) N 5- H 9        4.54 11.90 10.68 16.62     4.52 12.11 10.83 16.87
                                             deloc  26: -0.04 -0.10 -0.09  0.14
                                             deloc  29:  0.01 -0.07 -0.04  0.08
                                             deloc  36: -0.01 -0.03 -0.01  0.04
                                             deloc  39:  0.00  0.02  0.01  0.03
                                             deloc 209:  0.02  0.00 -0.01  0.02
                                             deloc  38:  0.01  0.00 -0.02  0.02
                                             deloc  37: -0.01 -0.02 -0.01  0.02

   Residual nuclear charge    0.22  0.00 -6.39  6.39     0.22  0.00 -6.39  6.39
                            ----------------------------------------------------
         Net dipole moment   -0.53  0.01  7.32  7.34    -0.35  0.01  1.96  1.99
 Delocalization correction                              -0.18  0.00  5.36  5.36
                            ----------------------------------------------------
       Total dipole moment   -0.53  0.01  7.32  7.34    -0.53  0.01  7.32  7.34


 NATURAL RESONANCE THEORY ANALYSIS:

 Maximum reference structures : 20
 Maximum resonance structures : 300
 Memory requirements : 3223545 words of 99830816 available

 0 candidate reference structure(s) calculated by SR LEWIS
 Possible hypervalency for atom 1; restart with full density matrix
 8 candidate reference structure(s) calculated by SR LEWIS
 Initial loops searched 8 bonding pattern(s); 8 were retained
 Delocalization list threshold set to 2.19 kcal/mol for reference 1
 Delocalization list threshold set to 1.00 kcal/mol for reference 2
 Delocalization list threshold set to 1.45 kcal/mol for reference 3
 Delocalization list threshold set to 1.46 kcal/mol for reference 4
 Delocalization list threshold set to 2.19 kcal/mol for reference 5
 Delocalization list threshold set to 1.46 kcal/mol for reference 6
 Delocalization list threshold set to 1.45 kcal/mol for reference 7
 Delocalization list threshold set to 4.04 kcal/mol for reference 8
 Reference   1:  rho*=1.62209, f(w)=0.79634 converged after  42 iterations
 Reference   2:  rho*=1.12597, f(w)=0.78541 converged after  32 iterations
 Reference   3:  rho*=1.74384, f(w)=0.53755 converged after  40 iterations
 Reference   4:  rho*=1.74381, f(w)=0.53695 converged after  39 iterations
 Reference   5:  rho*=1.62189, f(w)=0.79611 converged after  43 iterations
 Reference   6:  rho*=1.74431, f(w)=0.53636 converged after  41 iterations
 Reference   7:  rho*=1.74335, f(w)=0.53812 converged after  40 iterations
 Reference   8:  rho*=2.35178, f(w)=0.36158 converged after  29 iterations
 Multi-ref( 8):  D(W)=0.00831, F(W)=0.09505 converged after 316 iterations
 1 reference structure has low weight (<35.0% of 18.8%); discarded
 Multi-ref( 7):  D(W)=0.00831, F(W)=0.09507 converged after 167 iterations

                                                fractional accuracy f(w)
                  non-Lewis             -------------------------------------
  Ref     Wgt      density      d(0)      all NBOs     val+core     valence
 ----------------------------------------------------------------------------
   1    0.15553    1.62209    0.06487     0.79634      0.90155      0.90156
   2    0.32463    1.12597    0.03979     0.78541      0.87671      0.87672
   3    0.09108    1.74384    0.06850     0.53755      0.81721      0.81721
   4    0.09108    1.74381    0.06850     0.53695      0.81699      0.81699
   5    0.15553    1.62189    0.06486     0.79611      0.90106      0.90107
   6    0.09108    1.74431    0.06852     0.53636      0.81679      0.81679
   7    0.09108    1.74335    0.06847     0.53812      0.81740      0.81740


 TOPO matrix for the leading resonance structure:

     Atom  1   2   3   4   5   6   7   8   9
     ---- --- --- --- --- --- --- --- --- ---
   1.  S   0   1   1   1   1   0   0   0   0
   2.  O   1   3   0   0   0   0   0   0   0
   3.  O   1   0   3   0   0   0   0   0   0
   4.  N   1   0   0   1   0   1   1   0   0
   5.  N   1   0   0   0   1   0   0   1   1
   6.  H   0   0   0   1   0   0   0   0   0
   7.  H   0   0   0   1   0   0   0   0   0
   8.  H   0   0   0   0   1   0   0   0   0
   9.  H   0   0   0   0   1   0   0   0   0

         Resonance
    RS   Weight(%)                  Added(Removed)
 ---------------------------------------------------------------------------
    1*(4)  37.31
    2*      9.16    S  1- O  2, ( S  1- O  3), ( O  2),  O  3
    3*      9.14   ( S  1- O  2),  S  1- O  3,  O  2, ( O  3)
    4*(3)   7.87    S  1- O  3, ( S  1- N  4), ( O  3),  N  4
    5*(3)   7.86    S  1- O  3, ( S  1- N  5), ( O  3),  N  5
    6*(3)   7.85    S  1- O  2, ( S  1- N  5), ( O  2),  N  5
    7*(3)   7.84    S  1- O  2, ( S  1- N  4), ( O  2),  N  4
    8       2.07    S  1- O  2,  S  1- O  3, ( S  1- N  4), ( S  1- N  5),
                   ( O  2), ( O  3),  N  4,  N  5
    9       1.37    S  1- O  2,  S  1- O  2, ( S  1- N  4), ( S  1- N  5),
                   ( O  2), ( O  2),  N  4,  N  5
   10       1.37    S  1- O  3,  S  1- O  3, ( S  1- N  4), ( S  1- N  5),
                   ( O  3), ( O  3),  N  4,  N  5
   11       0.69   ( S  1- N  4),  S  1- N  5,  N  4, ( N  5)
   12       0.67    S  1- N  4, ( S  1- N  5), ( N  4),  N  5
   13       0.67   ( S  1- O  2),  S  1- O  3,  S  1- O  3, ( S  1- N  5),
                    O  2, ( O  3), ( O  3),  N  5
   14       0.67    S  1- O  2,  S  1- O  2, ( S  1- O  3), ( S  1- N  4),
                   ( O  2), ( O  2),  O  3,  N  4
   15       0.66    S  1- O  2,  S  1- O  2, ( S  1- O  3), ( S  1- N  5),
                   ( O  2), ( O  2),  O  3,  N  5
   16       0.66   ( S  1- O  2),  S  1- O  3,  S  1- O  3, ( S  1- N  4),
                    O  2, ( O  3), ( O  3),  N  4
   17       0.52   ( S  1- O  2),  S  1- N  5,  O  2, ( N  5)
   18       0.50   ( S  1- O  3),  S  1- N  5,  O  3, ( N  5)
   19       0.50   ( S  1- O  2),  S  1- N  4,  O  2, ( N  4)
   20       0.49   ( S  1- O  3),  S  1- N  4,  O  3, ( N  4)
   21       0.19    S  1- O  2, ( S  1- O  3), ( S  1- N  4),  S  1- N  5,
                   ( O  2),  O  3,  N  4, ( N  5)
   22       0.19    S  1- O  2, ( S  1- O  3),  S  1- N  4, ( S  1- N  5),
                   ( O  2),  O  3, ( N  4),  N  5
   23       0.18   ( S  1- O  2),  S  1- O  3,  S  1- N  4, ( S  1- N  5),
                    O  2, ( O  3), ( N  4),  N  5
   24       0.18   ( S  1- O  2),  S  1- O  3, ( S  1- N  4),  S  1- N  5,
                    O  2, ( O  3),  N  4, ( N  5)
   25       0.14   ( S  1- O  2), ( S  1- N  5),  S  1,  O  2, ( O  3),
                    N  5
   26       0.12   ( S  1- O  3), ( S  1- N  4),  S  1, ( O  2),  O  3,
                    N  4
   27       0.12   ( S  1- O  2), ( S  1- N  4),  S  1,  O  2, ( O  3),
                    N  4
   28       0.12   ( S  1- O  3), ( S  1- N  5),  S  1, ( O  2),  O  3,
                    N  5
   29       0.11   ( S  1- N  4), ( S  1- N  5),  S  1, ( O  3),  N  4,
                    N  5
   30       0.11   ( S  1- N  4), ( S  1- N  5),  S  1, ( O  2),  N  4,
                    N  5
   31-70    0.68
 ---------------------------------------------------------------------------
          100.00   * Total *                [* = reference structure]


 Natural Bond Order:  (total/covalent/ionic)

     Atom       1      2      3      4      5      6      7      8      9
     ----   ------ ------ ------ ------ ------ ------ ------ ------ ------
   1.  S  t 0.0120 1.2044 1.2040 0.7836 0.7841 0.0000 0.0000 0.0000 0.0000
          c   ---  0.5848 0.5844 0.5197 0.5196 0.0000 0.0000 0.0000 0.0000
          i   ---  0.6196 0.6196 0.2638 0.2645 0.0000 0.0000 0.0000 0.0000

   2.  O  t 1.2044 2.7906 0.0000 0.0000 0.0000 0.0000 0.0000 0.0000 0.0000
          c 0.5848   ---  0.0000 0.0000 0.0000 0.0000 0.0000 0.0000 0.0000
          i 0.6196   ---  0.0000 0.0000 0.0000 0.0000 0.0000 0.0000 0.0000

   3.  O  t 1.2040 0.0000 2.7909 0.0000 0.0000 0.0000 0.0000 0.0000 0.0000
          c 0.5844 0.0000   ---  0.0000 0.0000 0.0000 0.0000 0.0000 0.0000
          i 0.6196 0.0000   ---  0.0000 0.0000 0.0000 0.0000 0.0000 0.0000

   4.  N  t 0.7836 0.0000 0.0000 1.2165 0.0000 0.9995 0.9995 0.0000 0.0000
          c 0.5197 0.0000 0.0000   ---  0.0000 0.6028 0.6029 0.0000 0.0000
          i 0.2638 0.0000 0.0000   ---  0.0000 0.3967 0.3966 0.0000 0.0000

   5.  N  t 0.7841 0.0000 0.0000 0.0000 1.2161 0.0000 0.0000 0.9995 0.9995
          c 0.5196 0.0000 0.0000 0.0000   ---  0.0000 0.0000 0.6027 0.6027
          i 0.2645 0.0000 0.0000 0.0000   ---  0.0000 0.0000 0.3968 0.3968

   6.  H  t 0.0000 0.0000 0.0000 0.9995 0.0000 0.0000 0.0000 0.0000 0.0000
          c 0.0000 0.0000 0.0000 0.6028 0.0000   ---  0.0000 0.0000 0.0000
          i 0.0000 0.0000 0.0000 0.3967 0.0000   ---  0.0000 0.0000 0.0000

   7.  H  t 0.0000 0.0000 0.0000 0.9995 0.0000 0.0000 0.0000 0.0000 0.0000
          c 0.0000 0.0000 0.0000 0.6029 0.0000 0.0000   ---  0.0000 0.0000
          i 0.0000 0.0000 0.0000 0.3966 0.0000 0.0000   ---  0.0000 0.0000

   8.  H  t 0.0000 0.0000 0.0000 0.0000 0.9995 0.0000 0.0000 0.0000 0.0000
          c 0.0000 0.0000 0.0000 0.0000 0.6027 0.0000 0.0000   ---  0.0000
          i 0.0000 0.0000 0.0000 0.0000 0.3968 0.0000 0.0000   ---  0.0000

   9.  H  t 0.0000 0.0000 0.0000 0.0000 0.9995 0.0000 0.0000 0.0000 0.0000
          c 0.0000 0.0000 0.0000 0.0000 0.6027 0.0000 0.0000 0.0000   ---
          i 0.0000 0.0000 0.0000 0.0000 0.3968 0.0000 0.0000 0.0000   ---


 Natural Atomic Valencies:

                      Co-    Electro-
     Atom  Valency  Valency  Valency
     ----  -------  -------  -------
   1.  S    3.9760   2.2085   1.7675
   2.  O    1.2044   0.5848   0.6196
   3.  O    1.2040   0.5844   0.6196
   4.  N    2.7826   1.7254   1.0572
   5.  N    2.7831   1.7249   1.0582
   6.  H    0.9995   0.6028   0.3967
   7.  H    0.9995   0.6029   0.3966
   8.  H    0.9995   0.6027   0.3968
   9.  H    0.9995   0.6027   0.3968


 $NRTSTR
   STR        ! Wgt = 37.31%
     LONE 2 3 3 3 4 1 5 1 END
     BOND S 1 2 S 1 3 S 1 4 S 1 5 S 4 6 S 4 7 S 5 8 S 5 9 END
   END
   STR        ! Wgt =  9.16%
     LONE 2 2 3 4 4 1 5 1 END
     BOND D 1 2 S 1 4 S 1 5 S 4 6 S 4 7 S 5 8 S 5 9 END
   END
   STR        ! Wgt =  9.14%
     LONE 2 4 3 2 4 1 5 1 END
     BOND D 1 3 S 1 4 S 1 5 S 4 6 S 4 7 S 5 8 S 5 9 END
   END
   STR        ! Wgt =  7.87%
     LONE 2 3 3 2 4 2 5 1 END
     BOND S 1 2 D 1 3 S 1 5 S 4 6 S 4 7 S 5 8 S 5 9 END
   END
   STR        ! Wgt =  7.86%
     LONE 2 3 3 2 4 1 5 2 END
     BOND S 1 2 D 1 3 S 1 4 S 4 6 S 4 7 S 5 8 S 5 9 END
   END
   STR        ! Wgt =  7.85%
     LONE 2 2 3 3 4 1 5 2 END
     BOND D 1 2 S 1 3 S 1 4 S 4 6 S 4 7 S 5 8 S 5 9 END
   END
   STR        ! Wgt =  7.84%
     LONE 2 2 3 3 4 2 5 1 END
     BOND D 1 2 S 1 3 S 1 5 S 4 6 S 4 7 S 5 8 S 5 9 END
   END
 $END

 Maximum scratch memory used by NBO was 3831405 words
 Maximum scratch memory used by GENNBO was 269445 words

 Total cpu seconds     user:     802.000   user+sys:     851.000
  
 Total elapsed time:    3631 seconds

Job c2v1 completed on d6copt023.crc.nd.edu at Fri Apr 11 13:55:07 2014
