Job c2v2 started on d6copt069.crc.nd.edu at Fri Apr 11 13:24:43 2014
jobid: d6copt069-0-53482559

  +--------------------------------------------------------------------+
  |  Jaguar version 8.1, release  14                                   |
  |                                                                    |
  |  Copyright Schrodinger, LLC                                        |
  |  All Rights Reserved.                                              |
  |                                                                    |
  |  Use of this program should be acknowledged in publications as:    |
  |  Jaguar, version 8.1, Schrodinger, LLC, New York, NY, 2013.        |
  +--------------------------------------------------------------------+
  
  start of program pre
  
  Job name: c2v2
  Executables used: /opt/crc/schrodinger/2013u2/jaguar-v81014/bin/Linux-x86_64
  Temporary files : /tmp/ehansen3/c2v2#d6copt069-0-53482559
  Maestro file (input):  c2v2.mae
  Maestro file (output): c2v2.01.mae
  
  
  basis set:             cc-pvtz(-f)++   
  net molecular charge:    0
  multiplicity:            1
  
  Running   8 MPI processes
   
  Master MPI process running on d6copt069.crc.nd.edu
   Slave MPI process   1 running on d6copt069.crc.nd.edu
   Slave MPI process   2 running on d6copt069.crc.nd.edu
   Slave MPI process   3 running on d6copt069.crc.nd.edu
   Slave MPI process   4 running on d6copt069.crc.nd.edu
   Slave MPI process   5 running on d6copt069.crc.nd.edu
   Slave MPI process   6 running on d6copt069.crc.nd.edu
   Slave MPI process   7 running on d6copt069.crc.nd.edu
  
  number of basis functions....          216
  
 Input geometry:
                                   angstroms
  atom               x                 y                 z
  S1            0.0000000000      0.0000000000      0.1046595159 
  O2            1.2776003061      0.0000000000      0.7933625482 
  O3           -1.2776003061      0.0000000000      0.7933625482 
  N4            0.0000000000      1.3183211514     -0.9128797982 
  N5            0.0000000000     -1.3183211514     -0.9128797982 
  H6           -0.8458450683      1.8629554729     -0.7837340425 
  H7            0.8458450683      1.8629554729     -0.7837340425 
  H8           -0.8458450683     -1.8629554729     -0.7837340425 
  H9            0.8458450683     -1.8629554729     -0.7837340425 
   
  principal moments of inertia:
        amu*angstrom^2:      101.40048      108.96538      117.76492
                g*cm^2: 1.68379440E-38 1.80941246E-38 1.95553219E-38
   
  rotational constants:
               cm^(-1):      0.16624802      0.15470629      0.14314645
                   GHz:      4.98399020      4.63797780      4.29142249
   
  Molecular weight:      96.00 amu
   
  Stoichiometry: N2H4SO2
  Molecular Point Group: C2v     
	Molecule translated to center of mass 
	Molecule reoriented along symmetry axes
  Point Group used: C2v
  
 
Number of optimization coordinates:    21
Number of independent coordinates:     21
Number of non-redundant coordinates:   21
Number of frozen coordinates:           0
Number of harmonic constraints:         0
 
Number of geometric degrees of freedom:    21
Maximum geometric degrees of freedom:      21
 " " " " " excluding dummy atoms:          21
 
  
 Symmetrized geometry:
                                   angstroms
  atom               x                 y                 z
  S1            0.0000000000      0.0000000000      0.1046595159 
  O2            1.2776003061      0.0000000000      0.7933625482 
  O3           -1.2776003061      0.0000000000      0.7933625482 
  N4            0.0000000000      1.3183211514     -0.9128797982 
  N5            0.0000000000     -1.3183211514     -0.9128797982 
  H6           -0.8458450683      1.8629554729     -0.7837340425 
  H7            0.8458450683      1.8629554729     -0.7837340425 
  H8           -0.8458450683     -1.8629554729     -0.7837340425 
  H9            0.8458450683     -1.8629554729     -0.7837340425 
   
  nuclear repulsion energy.......     282.422246186 hartrees
 
 Non-default options chosen:
   SCF calculation type: DFT(m06)                    
   DFT=M06
   Transition state optimization
   Geometry will be optimized in redundant internal coordinates
   Culot/Fletcher trust radius adjustment
      initial trust radius:  0.100
   P-RFO level-shifting used
   Vibrational frequencies and related properties will be computed
      from analytic second derivatives
   IR intensities will be computed
   High accuracy cutoffs used in SCF
   Initial Hessian:  analytic 2nd derivatives
   Mixed Murtagh-Sargent/Powell Hessian-updating used
   Electrostatic potential fit to point charges on atomic centers
   Electrostatic potential fitting constrained to reproduce
     total charge:                yes
     dipole moment:               yes
     traceless quadrupole moment: no 
     traceless octapole moment:   no 
   Store KE, NAI, and pt. chg. terms separately
  
 Temporary integer options set:
     73=  2
  
  Peak memory usage:    734 Mb
  
  end of program pre
   
 Time(pre)  user:        0.0  user+sys:        0.0  wallclock:        2.3
  
  start of program onee
  
  smallest eigenvalue of S:    7.350E-05
  number of canonical orbitals.....          209
  Peak memory usage:    830 Mb
  
  end of program onee
   
 Time(onee)  user:        0.0  user+sys:        0.0  wallclock:        1.9
  
  start of program hfig
  
  initial wavefunction generated automatically from atomic wavefunctions
 
  Irreducible     Total no   No of occupied orbitals 
  representation  orbitals   Shell_1  Shell_2    ...
  A1                72         11
  A2                35          2
  B1                51          6
  B2                51          6
  ------------------------
  Orbital occupation/shell    1.000
 
  Peak memory usage:    775 Mb
  
  end of program hfig
   
 Time(hfig)  user:        0.0  user+sys:        0.0  wallclock:        1.9
  
  start of program probe
  
  Peak memory usage:    775 Mb
  
  end of program probe
   
 Time(probe)  user:        0.0  user+sys:        0.0  wallclock:        1.5
  
  start of program grid
  
  
   grid     grid set  grid #  grid sym
  ------    --------  ------  --------
  coarse        0        0        1
  medium        2        1        4
  fine          0        0        1
  ultrafine     4        2        4
  charge       -1        3        4
  gradient      4        2        4
  density       0        0        1
  DFT-fine    -11        4        4
  DFT-med.    -10        5        4
  DFT-grad    -12        6        4
  DFT-der2     -8        7        4
  DFT-cphf     -9        8        4
  LMP2-enrg     4        2        4
  LMP2-grad     2        1        4
  DFT-cphf2   -15        9        4
  PBF-dens      0        0        1
  plotting      0        0        1
  
   
  number of gridpoints: 
     atom        S1       O2       O3       N4       N5       H6       H7
  grid # 1      176      413        0      281        0        0      225
  grid # 2      176      413        0      281        0        0      226
  grid # 3       12      709        0      148        0        0     1252
  grid # 4     6260    11800        0    11800        0        0    22280
  grid # 5      870     1368        0     1368        0        0     2152
  grid # 6     6263    11630        0    11630        0        0    21648
  grid # 7    18129    33152        0    32815        0        0    66806
  grid # 8     1100     4068        0     4812        0        0     9848
  grid # 9      327      863        0     2118        0        0     2486
   
  number of gridpoints: 
     atom        H8       H9    total
  grid # 1        0        0     1095
  grid # 2        0        0     1096
  grid # 3        0        0     2121
  grid # 4        0        0    52140
  grid # 5        0        0     5758
  grid # 6        0        0    51171
  grid # 7        0        0   150902
  grid # 8        0        0    19828
  grid # 9        0        0     5794
   
  Sorting grid blocks by size.
  Peak memory usage:    785 Mb
  
  end of program grid
   
 Time(grid)  user:        1.0  user+sys:        3.0  wallclock:        4.8
  
  start of program rwr
  
  Peak memory usage:    751 Mb
  
  end of program rwr
   
 Time(rwr)  user:        0.0  user+sys:        0.0  wallclock:        2.1
  
  start of program scf
  
 number of electrons..........         50
 number of alpha electrons....         25
 number of beta electrons.....         25
 number of orbitals, total....        209
 number of doubly-occ'd orbs..         25
 number of open shell orbs....          0
 number of occupied orbitals..         25
 number of virtual orbitals...        184
 number of hamiltonians.......          1
 number of shells.............          1
 SCF type: DFT=M06
  
       i  u  d  i  g                   
       t  p  i  c  r                                 RMS    maximum
       e  d  i  u  i                       energy  density   DIIS  
       r  t  s  t  d       total energy    change  change    error 
  
etot    1  N  N  4  M    -658.91518850813           4.0E-03  1.9E-01
etot    2  Y  Y  6  M    -660.09224747781  1.2E+00  2.4E-03  8.1E-02
etot    3  Y  Y  6  M    -660.39202191438  3.0E-01  8.1E-04  3.7E-02
etot    4  N  Y  1  U    -660.45544917408  6.3E-02  7.4E-04  2.2E-02
etot    5  Y  Y  6  M    -660.46532372155  9.9E-03  4.2E-04  1.0E-02
etot    6  N  Y  1  U    -660.46581687599  4.9E-04  1.6E-04  2.0E-03
etot    7  Y  Y  6  M    -660.46603166678  2.1E-04  1.7E-05  6.1E-04
etot    8  N  Y  1  U    -660.46602660212 -5.1E-06  1.2E-05  1.2E-04
etot    9  N  Y  1  U    -660.46602633928 -2.6E-07  2.8E-06  2.8E-05
etot   10  N  N  1  U    -660.46602626077 -7.9E-08  0.0E+00  0.0E+00
  
  
 Energy components, in hartrees:
   (A)  Nuclear repulsion............     282.42224618617
   (E)  Total one-electron terms.....   -1468.61206907245
   (F)    Electron-nuclear...........   -2125.82418459220
   (H)    Kinetic....................     657.21211551975
   (I)  Total two-electron terms.....     525.72379662550
   (J)    Coulomb....................     583.88409841807
   (K)    Exchange+Correlation.......     -58.16030179257
   (L)  Electronic energy............    -942.88827244694  (E+I)
   (M)  -V/T.........................       2.00495108149  (-(A+F+I)/H)
   (N)  Total energy.................    -660.46602626077  (A+L)
  
 SCFE: SCF energy: DFT(m06)      -660.46602626077 hartrees   iterations:  10
  
 
 HOMO energy:    -0.30192
 LUMO energy:    -0.04967
 
  Orbital energies (hartrees)/symmetry label: 
   -89.31525 A1        -19.22608 A1        -19.22608 B1        -14.43462 A1     
   -14.43459 B2         -8.27289 A1         -6.19093 A1         -6.19027 B2     
    -6.18933 B1         -1.16444 A1         -1.05263 B1         -0.94642 A1     
    -0.93089 B2         -0.67570 A1         -0.56443 B1         -0.55527 B2     
    -0.54907 A2         -0.53055 A1         -0.46828 B1         -0.38859 A1     
    -0.38644 B2         -0.35425 A2         -0.35207 A1         -0.34091 B1     
    -0.30192 B2         -0.04967 A1         -0.03466 B2         -0.02110 B1     
    -0.00410 A2          0.00049 A1          0.02314 B2          0.02358 A1     
     0.03645 B1          0.04171 A1          0.06312 B1     
 
  Peak memory usage:    852 Mb
  
  end of program scf
   
 Time(scf)  user:       15.0  user+sys:       16.0  wallclock:       19.9
  
  start of program cutabab2
  
  Peak memory usage:    553 Mb
  
  end of program cutabab2
   
 Time(cutabab2)  user:        1.0  user+sys:        1.0  wallclock:        1.5
  
  start of program der2a
  
  Peak memory usage:    600 Mb
  
  end of program der2a
   
 Time(der2a)  user:        0.0  user+sys:        0.0  wallclock:        1.0
  
  start of program grid
  
  
   Turning symmetry off because some of the
   following programs cannot use it.
  
   grid     grid set  grid #  grid sym
  ------    --------  ------  --------
  coarse        0        0        1
  medium        2        1        4
  fine          0        0        1
  ultrafine     4        2        4
  charge       -1        3        4
  gradient      4        2        4
  density       0        0        1
  DFT-fine    -11        4        4
  DFT-med.    -10        5        4
  DFT-grad    -12        6        4
  DFT-der2     -8        7        4
  DFT-cphf     -9        8        4
  LMP2-enrg     4        2        4
  LMP2-grad     2        1        4
  DFT-cphf2   -15        9        4
  PBF-dens      0        0        1
  plotting      0        0        1
  
   
  number of gridpoints: 
     atom        S1       O2       O3       N4       N5       H6       H7
  grid # 1      558      732      732      489      489      225      225
  grid # 2      558      732      732      489      489      226      226
  grid # 3       26     1304     1304      254      254     1252     1252
  grid # 4    22182    22182    22182    22182    22182    22182    22182
  grid # 5     2152     2152     2152     2152     2152     2152     2152
  grid # 6    21660    21660    21660    21660    21660    21660    21660
  grid # 7    65632    63040    63040    62394    62394    66806    66806
  grid # 8     3460     7568     7568     8972     8972     9848     9848
  grid # 9      802     1434     1434     3748     3748     2486     2486
   
  number of gridpoints: 
     atom        H8       H9    total
  grid # 1      225      225     3900
  grid # 2      226      226     3904
  grid # 3     1252     1252     8150
  grid # 4    22182    22182   199638
  grid # 5     2152     2152    19368
  grid # 6    21660    21660   194940
  grid # 7    66806    66806   583724
  grid # 8     9848     9848    75932
  grid # 9     2486     2486    21110
   
  Sorting grid blocks by size.
  Peak memory usage:    790 Mb
  
  end of program grid
   
 Time(grid)  user:        1.0  user+sys:        3.0  wallclock:       10.7
  
  start of program der2b
  
  Peak memory usage:    963 Mb
  
  end of program der2b
   
 Time(der2b)  user:      293.0  user+sys:      309.0  wallclock:      312.3
  
  start of program der2nda
  
 
  Peak memory usage:    599 Mb
  
  end of program der2nda
   
 Time(der2nda)  user:        0.0  user+sys:        0.0  wallclock:        0.9
  
  start of program der2ndb
  
  Peak memory usage:    793 Mb
  
  end of program der2ndb
   
 Time(der2ndb)  user:      687.0  user+sys:      717.0  wallclock:      721.4
  
  start of program rwr
  
  Peak memory usage:    748 Mb
  
  end of program rwr
   
 Time(rwr)  user:        1.0  user+sys:        1.0  wallclock:        2.5
  
  start of program cphfa
  
       1  vectors produced in CPHF
  
     v    i  j  k  i  g
     e    t  c  c  c  r
     c    e  o  o  u  i
     t    r  r  r  t  d       RMS  
  
     1    1  0  0  6  M     1.6E-02
     1    2  0  0  6  M     1.1E-03
     1    3  0  0  6  M     3.4E-04
     1    4  0  0  6  M     1.3E-04
     1    5  0  0  6  M     4.0E-05
  
  
  Atomic Polar Tensors (au): Total
  =========================
  
  APT for atom S1      
  --------------------------------------
        2.2320       0.0000       0.0000
        0.0000       2.5936       0.0000
        0.0000       0.0000       1.9531
  --------------------------------------
  
  APT for atom O2      
  --------------------------------------
       -1.0599       0.0000      -0.3820
        0.0000      -0.7057       0.0000
       -0.2325       0.0000      -0.7199
  --------------------------------------
  
  APT for atom O3      
  --------------------------------------
       -1.0600       0.0000       0.3820
        0.0000      -0.7057       0.0000
        0.2325       0.0000      -0.7199
  --------------------------------------
  
  APT for atom N4      
  --------------------------------------
       -0.4457       0.0000       0.0000
        0.0000      -0.8864       0.2631
        0.0000       0.3763      -0.7602
  --------------------------------------
  
  APT for atom N5      
  --------------------------------------
       -0.4457       0.0000       0.0000
        0.0000      -0.8864      -0.2630
        0.0000      -0.3762      -0.7602
  --------------------------------------
  
  APT for atom H6      
  --------------------------------------
        0.1946      -0.0529       0.0584
       -0.0049       0.1476       0.0210
        0.0538      -0.0272       0.2517
  --------------------------------------
  
  APT for atom H7      
  --------------------------------------
        0.1946       0.0529      -0.0584
        0.0049       0.1476       0.0210
       -0.0538      -0.0272       0.2517
  --------------------------------------
  
  APT for atom H8      
  --------------------------------------
        0.1946       0.0529       0.0584
        0.0049       0.1476      -0.0210
        0.0538       0.0272       0.2517
  --------------------------------------
  
  APT for atom H9      
  --------------------------------------
        0.1946      -0.0529      -0.0584
       -0.0048       0.1476      -0.0210
       -0.0538       0.0272       0.2517
  --------------------------------------
  
  Peak memory usage:    860 Mb
  
  end of program cphfa
   
 Time(cphfa)  user:      268.0  user+sys:      274.0  wallclock:      276.7
  
  start of program der1a
  
  Peak memory usage:    835 Mb
  
  end of program der1a
   
 Time(der1a)  user:        0.0  user+sys:        0.0  wallclock:        1.6
  
  start of program grid
  
  
   Turning symmetry back on
  
   grid     grid set  grid #  grid sym
  ------    --------  ------  --------
  coarse        0        0        1
  medium        2        1        4
  fine          0        0        1
  ultrafine     4        2        4
  charge       -1        3        4
  gradient      4        2        4
  density       0        0        1
  DFT-fine    -11        4        4
  DFT-med.    -10        5        4
  DFT-grad    -12        6        4
  DFT-der2     -8        7        4
  DFT-cphf     -9        8        4
  LMP2-enrg     4        2        4
  LMP2-grad     2        1        4
  DFT-cphf2   -15        9        4
  PBF-dens      0        0        1
  plotting      0        0        1
  
   
  number of gridpoints: 
     atom        S1       O2       O3       N4       N5       H6       H7
  grid # 1      176      413        0      281        0        0      225
  grid # 2      176      413        0      281        0        0      226
  grid # 3       12      709        0      148        0        0     1252
  grid # 4     6238    11753        0    11753        0        0    22182
  grid # 5      870     1368        0     1368        0        0     2152
  grid # 6     6264    11634        0    11634        0        0    21660
  grid # 7    18132    33152        0    32815        0        0    66806
  grid # 8     1100     4068        0     4812        0        0     9848
  grid # 9      327      863        0     2068        0        0     2486
   
  number of gridpoints: 
     atom        H8       H9    total
  grid # 1        0        0     1095
  grid # 2        0        0     1096
  grid # 3        0        0     2121
  grid # 4        0        0    51926
  grid # 5        0        0     5758
  grid # 6        0        0    51192
  grid # 7        0        0   150905
  grid # 8        0        0    19828
  grid # 9        0        0     5744
   
  Sorting grid blocks by size.
  Peak memory usage:    786 Mb
  
  end of program grid
   
 Time(grid)  user:        0.0  user+sys:        0.0  wallclock:        2.5
  
  start of program rwr
  
  Peak memory usage:    748 Mb
  
  end of program rwr
   
 Time(rwr)  user:        0.0  user+sys:        0.0  wallclock:        2.0
  
  start of program der1b
  
   
  forces (hartrees/bohr) : total     
   
 atom  label           x              y              z
 ---- --------   -------------  -------------  -------------
    1 S1          0.000000E+00   0.000000E+00   1.396341E-02
    2 O2         -1.602098E-02   0.000000E+00  -1.069871E-02
    3 O3          1.602098E-02   0.000000E+00  -1.069871E-02
    4 N4          0.000000E+00  -2.872184E-03   4.337538E-04
    5 N5          0.000000E+00   2.872184E-03   4.337538E-04
    6 H6          2.301807E-03  -1.174636E-03   4.983604E-04
    7 H7         -2.301807E-03  -1.174636E-03   4.983604E-04
    8 H8          2.301807E-03   1.174636E-03   4.983604E-04
    9 H9         -2.301807E-03   1.174636E-03   4.983604E-04
 -------------   -------------  -------------  -------------
     total        0.000000E+00   0.000000E+00  -4.573049E-03
   
  Peak memory usage:    853 Mb
  
  end of program der1b
   
 Time(der1b)  user:        6.0  user+sys:        6.0  wallclock:        8.7
  
  start of program geopt
  
  geometry optimization step  1
  energy:            -660.46602626077 hartrees
  
  Hessian eigenvalues: 
    1.12515E-04    1.32005E-02    2.16114E-02    3.57236E-02    1.30978E-01
    1.34975E-01    2.07346E-01    2.29011E-01    2.34180E-01    2.91146E-01
    3.19199E-01    3.45340E-01    3.90327E-01    4.46792E-01    4.47848E-01
    4.51456E-01    4.54249E-01    6.21499E-01    6.30462E-01    8.47692E-01
    1.24750E+00
  
  WARNING: Hessian has wrong number of negative eigenvalues
  
  TS search will follow eigenvector   1 on this iteration
  
  Selected vector:  eigenvalue     1.12515E-04

  1)  N5-S1-N4-H6( 17) -0.59067
      N4-S1-N5-H8( 14) -0.58783
      O2-S1-N4-H6( 11) -0.53895
  
  
  Level shifts adjusted to satisfy step-size constraints
   Step size:    0.1001089
   Cos(theta):   0.5448119
   Final level shift:  -2.4589061E-03
  
  gradient maximum:        1.8938E-02 .  (  4.5000E-04 )
  gradient rms:            6.3450E-03 .  (  3.0000E-04 )
  displacement maximum:    5.2567E-02 .  (  1.8000E-03 )
  displacement rms:        2.2397E-02 .  (  1.2000E-03 )
  
  predicted energy change:  -8.0546E-04
  step size:     0.10264
  trust radius:  0.10000
  
  molecular structure not yet converged...
  
  center of mass moved by:
     x:     0.0000E+00     y:     0.0000E+00     z:    -2.2474E-02
  
  new geometry: 
                                   angstroms
  atom               x                 y                 z
  S1            0.0000000000      0.0000000000      0.1075991726 
  O2            1.2660971709      0.0000000000      0.7850049371 
  O3           -1.2660971709      0.0000000000      0.7850049371 
  N4            0.0000000000      1.3112473035     -0.9108937341 
  N5            0.0000000000     -1.3112473035     -0.9108937341 
  H6           -0.8374888077      1.8580833877     -0.7545251932 
  H7            0.8374888077      1.8580833877     -0.7545251932 
  H8           -0.8374888077     -1.8580833877     -0.7545251932 
  H9            0.8374888077     -1.8580833877     -0.7545251932 
   
  nuclear repulsion energy.......     284.439633215 hartrees
  -------------------------------------------------
 /  end of geometry optimization iteration   1   /
 -------------------------------------------------
   
  Peak memory usage:    449 Mb
  
  end of program geopt
   
 Time(geopt)  user:        0.0  user+sys:        0.0  wallclock:        1.3
  
  start of program onee
  
  smallest eigenvalue of S:    7.313E-05
  number of canonical orbitals.....          208
  Peak memory usage:    830 Mb
  
  end of program onee
   
 Time(onee)  user:        0.0  user+sys:        0.0  wallclock:        1.6
  
  start of program probe
  
  Peak memory usage:    770 Mb
  
  end of program probe
   
 Time(probe)  user:        0.0  user+sys:        0.0  wallclock:        1.5
  
  start of program grid
  
  
   grid     grid set  grid #  grid sym
  ------    --------  ------  --------
  coarse        0        0        1
  medium        2        1        4
  fine          0        0        1
  ultrafine     4        2        4
  charge       -1        3        4
  gradient      4        2        4
  density       0        0        1
  DFT-fine    -11        4        4
  DFT-med.    -10        5        4
  DFT-grad    -12        6        4
  DFT-der2     -8        7        4
  DFT-cphf     -9        8        4
  LMP2-enrg     4        2        4
  LMP2-grad     2        1        4
  DFT-cphf2   -15        9        4
  PBF-dens      0        0        1
  plotting      0        0        1
  
   
  number of gridpoints: 
     atom        S1       O2       O3       N4       N5       H6       H7
  grid # 1      173      413        0      284        0        0      224
  grid # 2      173      413        0      284        0        0      225
  grid # 3       11      703        0      157        0        0     1238
  grid # 4     6260    11800        0    11800        0        0    22280
  grid # 5      870     1368        0     1368        0        0     2152
  grid # 6     6263    11630        0    11630        0        0    21648
  grid # 7    18129    33152        0    32815        0        0    66806
  grid # 8     1100     4068        0     4812        0        0     9848
  grid # 9      327      863        0     2118        0        0     2486
   
  number of gridpoints: 
     atom        H8       H9    total
  grid # 1        0        0     1094
  grid # 2        0        0     1095
  grid # 3        0        0     2109
  grid # 4        0        0    52140
  grid # 5        0        0     5758
  grid # 6        0        0    51171
  grid # 7        0        0   150902
  grid # 8        0        0    19828
  grid # 9        0        0     5794
   
  Sorting grid blocks by size.
  Peak memory usage:    785 Mb
  
  end of program grid
   
 Time(grid)  user:        0.0  user+sys:        0.0  wallclock:        2.3
  
  start of program rwr
  
  Peak memory usage:    748 Mb
  
  end of program rwr
   
 Time(rwr)  user:        0.0  user+sys:        0.0  wallclock:        2.2
  
  start of program scf
  
  
       i  u  d  i  g                   
       t  p  i  c  r                                 RMS    maximum
       e  d  i  u  i                       energy  density   DIIS  
       r  t  s  t  d       total energy    change  change    error 
  
etot    1  N  N  1  U    -660.46556445676           2.2E-04  5.4E-03
etot    2  Y  Y  6  M    -660.46620135676  6.4E-04  4.5E-05  1.3E-03
etot    3  N  Y  1  U    -660.46624332117  4.2E-05  2.0E-05  1.3E-03
etot    4  N  Y  1  U    -660.46629514996  5.2E-05  5.8E-06  2.2E-04
etot    5  N  Y  1  U    -660.46629786631  2.7E-06  2.2E-06  5.0E-05
etot    6  N  N  1  U    -660.46629812326  2.6E-07  0.0E+00  0.0E+00
  
  
 Energy components, in hartrees:
   (A)  Nuclear repulsion............     284.43963321464
   (E)  Total one-electron terms.....   -1472.59226928126
   (F)    Electron-nuclear...........   -2129.95372782452
   (H)    Kinetic....................     657.36145854325
   (I)  Total two-electron terms.....     527.68633794336
   (J)    Coulomb....................     585.88451086581
   (K)    Exchange+Correlation.......     -58.19817292244
   (L)  Electronic energy............    -944.90593133790  (E+I)
   (M)  -V/T.........................       2.00472318469  (-(A+F+I)/H)
   (N)  Total energy.................    -660.46629812326  (A+L)
  
 SCFE: SCF energy: DFT(m06)      -660.46629812326 hartrees   iterations:   6
  
 
 HOMO energy:    -0.30304
 LUMO energy:    -0.04909
 
  Orbital energies (hartrees)/symmetry label: 
   -89.31177 A1        -19.22555 B1        -19.22555 A1        -14.43260 A1     
   -14.43260 B2         -8.27058 A1         -6.18851 A1         -6.18782 B2     
    -6.18702 B1         -1.17315 A1         -1.06008 B1         -0.94830 A1     
    -0.93292 B2         -0.67363 A1         -0.56319 B1         -0.55531 B2     
    -0.54781 A2         -0.53279 A1         -0.46972 B1         -0.39302 A1     
    -0.38948 B2         -0.35782 A2         -0.35316 A1         -0.34432 B1     
    -0.30304 B2         -0.04909 A1         -0.03442 B2         -0.02070 B1     
    -0.00386 A2          0.00269 A1          0.02286 B2          0.02675 A1     
     0.03704 B1          0.04204 A1          0.06442 B1     
 
  Peak memory usage:    852 Mb
  
  end of program scf
   
 Time(scf)  user:       12.0  user+sys:       15.0  wallclock:       17.3
  
  start of program der1a
  
  Peak memory usage:    830 Mb
  
  end of program der1a
   
 Time(der1a)  user:        0.0  user+sys:        0.0  wallclock:        1.6
  
  start of program rwr
  
  Peak memory usage:    749 Mb
  
  end of program rwr
   
 Time(rwr)  user:        0.0  user+sys:        0.0  wallclock:        1.9
  
  start of program der1b
  
   
  forces (hartrees/bohr) : total     
   
 atom  label           x              y              z
 ---- --------   -------------  -------------  -------------
    1 S1          0.000000E+00   0.000000E+00  -1.405269E-03
    2 O2         -4.279283E-05   2.775558E-17  -4.444360E-04
    3 O3          4.279283E-05  -2.775558E-17  -4.444360E-04
    4 N4          0.000000E+00  -1.887404E-04  -3.439777E-04
    5 N5          0.000000E+00   1.887404E-04  -3.439777E-04
    6 H6         -4.990937E-05   6.105417E-05  -4.277915E-04
    7 H7          4.990937E-05   6.105417E-05  -4.277915E-04
    8 H8         -4.990937E-05  -6.105417E-05  -4.277915E-04
    9 H9          4.990937E-05  -6.105417E-05  -4.277915E-04
 -------------   -------------  -------------  -------------
     total        0.000000E+00   0.000000E+00  -4.693262E-03
   
  Peak memory usage:    853 Mb
  
  end of program der1b
   
 Time(der1b)  user:        6.0  user+sys:        6.0  wallclock:        8.6
  
  start of program geopt
  
  geometry optimization step  2
  energy:            -660.46629812326 hartrees
  
  Hessian eigenvalues: 
    5.00000E-04    1.36015E-02    2.18949E-02    3.56846E-02    1.30492E-01
    1.34284E-01    2.06547E-01    2.27600E-01    2.32403E-01    2.88822E-01
    3.15861E-01    3.41296E-01    3.84841E-01    4.43962E-01    4.48424E-01
    4.55142E-01    4.57800E-01    6.20972E-01    6.31862E-01    8.29766E-01
    1.23412E+00
  
  WARNING: Hessian has wrong number of negative eigenvalues
  
  TS search will follow eigenvector   1 on this iteration
  
  Selected vector:  eigenvalue     5.00000E-04

  1)  N4-S1-N5-H8( 14) -0.59152
      N5-S1-N4-H6( 17) -0.58696
      O2-S1-N4-H6( 11) -0.53496
  
  
  Level shifts adjusted to satisfy step-size constraints
   Step size:    0.0451208
   Cos(theta):   0.0999987
   Final level shift:  -8.1960025E-05
  
  energy change:          -2.7186E-04 .  (  5.0000E-05 )
  gradient maximum:        9.3338E-04 .  (  4.5000E-04 )
  gradient rms:            2.3782E-04 *  (  3.0000E-04 )
  displacement maximum:    4.2186E-03 .  (  1.8000E-03 )
  displacement rms:        1.4684E-03 .  (  1.2000E-03 )
  
  predicted energy change:   5.1507E-06
  step size:     0.00673
  trust radius:  0.14142
  
  molecular structure not yet converged...
  
  center of mass moved by:
     x:     0.0000E+00     y:     0.0000E+00     z:    -2.8754E-03
  
  new geometry: 
                                   angstroms
  atom               x                 y                 z
  S1            0.0000000000      0.0000000000      0.1082695984 
  O2            1.2679708686      0.0000000000      0.7823757059 
  O3           -1.2679708686      0.0000000000      0.7823757059 
  N4            0.0000000000      1.3115444751     -0.9091912413 
  N5            0.0000000000     -1.3115444751     -0.9091912413 
  H6           -0.8377905768      1.8578009073     -0.7508059238 
  H7            0.8377905768      1.8578009073     -0.7508059238 
  H8           -0.8377905768     -1.8578009073     -0.7508059238 
  H9            0.8377905768     -1.8578009073     -0.7508059238 
   
  nuclear repulsion energy.......     284.482349654 hartrees
  -------------------------------------------------
 /  end of geometry optimization iteration   2   /
 -------------------------------------------------
   
  Peak memory usage:    449 Mb
  
  end of program geopt
   
 Time(geopt)  user:        0.0  user+sys:        0.0  wallclock:        0.3
  
  start of program onee
  
  smallest eigenvalue of S:    7.310E-05
  number of canonical orbitals.....          208
  Peak memory usage:    830 Mb
  
  end of program onee
   
 Time(onee)  user:        0.0  user+sys:        0.0  wallclock:        3.2
  
  start of program probe
  
  Peak memory usage:    770 Mb
  
  end of program probe
   
 Time(probe)  user:        0.0  user+sys:        0.0  wallclock:        1.5
  
  start of program grid
  
  
   grid     grid set  grid #  grid sym
  ------    --------  ------  --------
  coarse        0        0        1
  medium        2        1        4
  fine          0        0        1
  ultrafine     4        2        4
  charge       -1        3        4
  gradient      4        2        4
  density       0        0        1
  DFT-fine    -11        4        4
  DFT-med.    -10        5        4
  DFT-grad    -12        6        4
  DFT-der2     -8        7        4
  DFT-cphf     -9        8        4
  LMP2-enrg     4        2        4
  LMP2-grad     2        1        4
  DFT-cphf2   -15        9        4
  PBF-dens      0        0        1
  plotting      0        0        1
  
   
  number of gridpoints: 
     atom        S1       O2       O3       N4       N5       H6       H7
  grid # 1      173      413        0      284        0        0      224
  grid # 2      173      413        0      284        0        0      225
  grid # 3       11      703        0      157        0        0     1237
  grid # 4     6260    11800        0    11800        0        0    22280
  grid # 5      870     1368        0     1368        0        0     2152
  grid # 6     6263    11630        0    11630        0        0    21648
  grid # 7    18129    33152        0    32815        0        0    66806
  grid # 8     1100     4068        0     4812        0        0     9848
  grid # 9      327      863        0     2118        0        0     2486
   
  number of gridpoints: 
     atom        H8       H9    total
  grid # 1        0        0     1094
  grid # 2        0        0     1095
  grid # 3        0        0     2108
  grid # 4        0        0    52140
  grid # 5        0        0     5758
  grid # 6        0        0    51171
  grid # 7        0        0   150902
  grid # 8        0        0    19828
  grid # 9        0        0     5794
   
  Sorting grid blocks by size.
  Peak memory usage:    785 Mb
  
  end of program grid
   
 Time(grid)  user:        1.0  user+sys:        3.0  wallclock:        5.2
  
  start of program rwr
  
  Peak memory usage:    748 Mb
  
  end of program rwr
   
 Time(rwr)  user:        0.0  user+sys:        0.0  wallclock:        2.1
  
  start of program scf
  
  
       i  u  d  i  g                   
       t  p  i  c  r                                 RMS    maximum
       e  d  i  u  i                       energy  density   DIIS  
       r  t  s  t  d       total energy    change  change    error 
  
etot    1  N  N  1  U    -660.46627159863           1.9E-05  4.3E-04
etot    2  N  Y  1  U    -660.46628352159  1.2E-05  4.6E-06  7.6E-05
etot    3  N  N  1  U    -660.46628405630  5.3E-07  0.0E+00  0.0E+00
  
  
 Energy components, in hartrees:
   (A)  Nuclear repulsion............     284.48234965419
   (E)  Total one-electron terms.....   -1472.67141542973
   (F)    Electron-nuclear...........   -2130.03329300137
   (H)    Kinetic....................     657.36187757164
   (I)  Total two-electron terms.....     527.72278171924
   (J)    Coulomb....................     585.92104201176
   (K)    Exchange+Correlation.......     -58.19826029252
   (L)  Electronic energy............    -944.94863371049  (E+I)
   (M)  -V/T.........................       2.00472252285  (-(A+F+I)/H)
   (N)  Total energy.................    -660.46628405630  (A+L)
  
 SCFE: SCF energy: DFT(m06)      -660.46628405630 hartrees   iterations:   3
  
 
 HOMO energy:    -0.30307
 LUMO energy:    -0.04905
 
  Orbital energies (hartrees)/symmetry label: 
   -89.31215 A1        -19.22551 B1        -19.22551 A1        -14.43269 A1     
   -14.43269 B2         -8.27091 A1         -6.18885 A1         -6.18815 B2     
    -6.18735 B1         -1.17334 A1         -1.06043 B1         -0.94821 A1     
    -0.93307 B2         -0.67345 A1         -0.56317 B1         -0.55523 B2     
    -0.54789 A2         -0.53300 A1         -0.46985 B1         -0.39292 A1     
    -0.38952 B2         -0.35795 A2         -0.35324 A1         -0.34469 B1     
    -0.30307 B2         -0.04905 A1         -0.03437 B2         -0.02066 B1     
    -0.00384 A2          0.00264 A1          0.02287 B2          0.02675 A1     
     0.03710 B1          0.04207 A1          0.06468 B1     
 
  Peak memory usage:    852 Mb
  
  end of program scf
   
 Time(scf)  user:        6.0  user+sys:        7.0  wallclock:        9.6
  
  start of program der1a
  
  Peak memory usage:    830 Mb
  
  end of program der1a
   
 Time(der1a)  user:        0.0  user+sys:        0.0  wallclock:        1.6
  
  start of program rwr
  
  Peak memory usage:    749 Mb
  
  end of program rwr
   
 Time(rwr)  user:        0.0  user+sys:        0.0  wallclock:        1.9
  
  start of program der1b
  
   
  forces (hartrees/bohr) : total     
   
 atom  label           x              y              z
 ---- --------   -------------  -------------  -------------
    1 S1          0.000000E+00   0.000000E+00  -2.158613E-03
    2 O2         -4.659785E-04  -5.551115E-17   1.980862E-04
    3 O3          4.659785E-04   5.551115E-17   1.980862E-04
    4 N4          0.000000E+00   1.011370E-04  -3.516898E-04
    5 N5          0.000000E+00  -1.011370E-04  -3.516898E-04
    6 H6          1.377466E-04   7.664206E-05  -5.478805E-04
    7 H7         -1.377466E-04   7.664206E-05  -5.478805E-04
    8 H8          1.377466E-04  -7.664206E-05  -5.478805E-04
    9 H9         -1.377466E-04  -7.664206E-05  -5.478805E-04
 -------------   -------------  -------------  -------------
     total        0.000000E+00   0.000000E+00  -4.657342E-03
   
  Peak memory usage:    853 Mb
  
  end of program der1b
   
 Time(der1b)  user:        7.0  user+sys:        7.0  wallclock:       10.2
  
  start of program geopt
  
  geometry optimization step  3
  energy:            -660.46628405630 hartrees
  
  TS search will follow eigenvector   1 on this iteration
  
  Selected vector:  eigenvalue    -2.41275E-05

  1)  N4-S1-N5-H8( 14) -0.60330
      N5-S1-N4-H6( 17) -0.58016
      O2-S1-N4-H6( 11) -0.52807
  
  energy change:           1.4067E-05 *  (  5.0000E-05 )
  gradient maximum:        1.8237E-03 .  (  4.5000E-04 )
  gradient rms:            5.9527E-04 .  (  3.0000E-04 )
  displacement maximum:    3.4386E-03 .  (  1.8000E-03 )
  displacement rms:        1.2272E-03 .  (  1.2000E-03 )
  
  predicted energy change:  -6.6934E-06
  step size:     0.00562
  trust radius:  0.20000
  
  molecular structure not yet converged...
  
  center of mass moved by:
     x:     0.0000E+00     y:     0.0000E+00     z:    -6.5756E-04
  
  new geometry: 
                                   angstroms
  atom               x                 y                 z
  S1            0.0000000000      0.0000000000      0.1072593184 
  O2            1.2666726084      0.0000000000      0.7837019346 
  O3           -1.2666726084      0.0000000000      0.7837019346 
  N4            0.0000000000      1.3119452859     -0.9096385545 
  N5            0.0000000000     -1.3119452859     -0.9096385545 
  H6           -0.8373900950      1.8584980830     -0.7502099794 
  H7            0.8373900950      1.8584980830     -0.7502099794 
  H8           -0.8373900950     -1.8584980830     -0.7502099794 
  H9            0.8373900950     -1.8584980830     -0.7502099794 
   
  nuclear repulsion energy.......     284.481264147 hartrees
  -------------------------------------------------
 /  end of geometry optimization iteration   3   /
 -------------------------------------------------
   
  Peak memory usage:    449 Mb
  
  end of program geopt
   
 Time(geopt)  user:        0.0  user+sys:        0.0  wallclock:        0.3
  
  start of program onee
  
  smallest eigenvalue of S:    7.321E-05
  number of canonical orbitals.....          208
  Peak memory usage:    830 Mb
  
  end of program onee
   
 Time(onee)  user:        0.0  user+sys:        0.0  wallclock:        1.6
  
  start of program probe
  
  Peak memory usage:    770 Mb
  
  end of program probe
   
 Time(probe)  user:        0.0  user+sys:        0.0  wallclock:        1.5
  
  start of program grid
  
  
   grid     grid set  grid #  grid sym
  ------    --------  ------  --------
  coarse        0        0        1
  medium        2        1        4
  fine          0        0        1
  ultrafine     4        2        4
  charge       -1        3        4
  gradient      4        2        4
  density       0        0        1
  DFT-fine    -11        4        4
  DFT-med.    -10        5        4
  DFT-grad    -12        6        4
  DFT-der2     -8        7        4
  DFT-cphf     -9        8        4
  LMP2-enrg     4        2        4
  LMP2-grad     2        1        4
  DFT-cphf2   -15        9        4
  PBF-dens      0        0        1
  plotting      0        0        1
  
   
  number of gridpoints: 
     atom        S1       O2       O3       N4       N5       H6       H7
  grid # 1      173      413        0      284        0        0      224
  grid # 2      173      413        0      284        0        0      225
  grid # 3       11      703        0      157        0        0     1237
  grid # 4     6260    11800        0    11800        0        0    22280
  grid # 5      870     1368        0     1368        0        0     2152
  grid # 6     6263    11630        0    11630        0        0    21648
  grid # 7    18129    33152        0    32815        0        0    66806
  grid # 8     1100     4068        0     4812        0        0     9848
  grid # 9      327      863        0     2118        0        0     2486
   
  number of gridpoints: 
     atom        H8       H9    total
  grid # 1        0        0     1094
  grid # 2        0        0     1095
  grid # 3        0        0     2108
  grid # 4        0        0    52140
  grid # 5        0        0     5758
  grid # 6        0        0    51171
  grid # 7        0        0   150902
  grid # 8        0        0    19828
  grid # 9        0        0     5794
   
  Sorting grid blocks by size.
  Peak memory usage:    786 Mb
  
  end of program grid
   
 Time(grid)  user:        0.0  user+sys:        1.0  wallclock:        2.9
  
  start of program rwr
  
  Peak memory usage:    748 Mb
  
  end of program rwr
   
 Time(rwr)  user:        0.0  user+sys:        0.0  wallclock:        2.6
  
  start of program scf
  
  
       i  u  d  i  g                   
       t  p  i  c  r                                 RMS    maximum
       e  d  i  u  i                       energy  density   DIIS  
       r  t  s  t  d       total energy    change  change    error 
  
etot    1  N  N  1  U    -660.46627571209           1.1E-05  3.2E-04
etot    2  N  Y  1  U    -660.46628022961  4.5E-06  3.9E-06  1.1E-04
etot    3  N  N  1  U    -660.46628045161  2.2E-07  0.0E+00  0.0E+00
  
  
 Energy components, in hartrees:
   (A)  Nuclear repulsion............     284.48126414669
   (E)  Total one-electron terms.....   -1472.66970954664
   (F)    Electron-nuclear...........   -2130.03310252632
   (H)    Kinetic....................     657.36339297968
   (I)  Total two-electron terms.....     527.72216494834
   (J)    Coulomb....................     585.92070768136
   (K)    Exchange+Correlation.......     -58.19854273302
   (L)  Electronic energy............    -944.94754459830  (E+I)
   (M)  -V/T.........................       2.00472020119  (-(A+F+I)/H)
   (N)  Total energy.................    -660.46628045161  (A+L)
  
 SCFE: SCF energy: DFT(m06)      -660.46628045161 hartrees   iterations:   3
  
 
 HOMO energy:    -0.30327
 LUMO energy:    -0.04909
 
  Orbital energies (hartrees)/symmetry label: 
   -89.31216 A1        -19.22494 B1        -19.22494 A1        -14.43315 A1     
   -14.43314 B2         -8.27092 A1         -6.18886 A1         -6.18816 B2     
    -6.18736 B1         -1.17323 A1         -1.06003 B1         -0.94848 A1     
    -0.93340 B2         -0.67363 A1         -0.56326 B1         -0.55536 B2     
    -0.54798 A2         -0.53278 A1         -0.46958 B1         -0.39293 A1     
    -0.38976 B2         -0.35763 A2         -0.35338 A1         -0.34422 B1     
    -0.30327 B2         -0.04909 A1         -0.03442 B2         -0.02068 B1     
    -0.00386 A2          0.00268 A1          0.02287 B2          0.02668 A1     
     0.03712 B1          0.04208 A1          0.06432 B1     
 
  Peak memory usage:    852 Mb
  
  end of program scf
   
 Time(scf)  user:        6.0  user+sys:        6.0  wallclock:        9.1
  
  start of program der1a
  
  Peak memory usage:    830 Mb
  
  end of program der1a
   
 Time(der1a)  user:        0.0  user+sys:        1.0  wallclock:        3.2
  
  start of program rwr
  
  Peak memory usage:    748 Mb
  
  end of program rwr
   
 Time(rwr)  user:        0.0  user+sys:        0.0  wallclock:        1.9
  
  start of program der1b
  
   
  forces (hartrees/bohr) : total     
   
 atom  label           x              y              z
 ---- --------   -------------  -------------  -------------
    1 S1          0.000000E+00   0.000000E+00  -9.999313E-04
    2 O2         -1.217501E-04  -8.326673E-17  -3.333675E-04
    3 O3          1.217501E-04   8.326673E-17  -3.333675E-04
    4 N4          0.000000E+00   5.062541E-05  -4.287076E-04
    5 N5          0.000000E+00  -5.062541E-05  -4.287076E-04
    6 H6          4.600222E-05   3.613171E-05  -5.351713E-04
    7 H7         -4.600222E-05   3.613171E-05  -5.351713E-04
    8 H8          4.600222E-05  -3.613171E-05  -5.351713E-04
    9 H9         -4.600222E-05  -3.613171E-05  -5.351713E-04
 -------------   -------------  -------------  -------------
     total        0.000000E+00   0.000000E+00  -4.664766E-03
   
  Peak memory usage:    853 Mb
  
  end of program der1b
   
 Time(der1b)  user:        6.0  user+sys:        6.0  wallclock:       10.0
  
  start of program geopt
  
  geometry optimization step  4
  energy:            -660.46628045161 hartrees
  
  TS search will follow eigenvector   1 on this iteration
  
  Selected vector:  eigenvalue    -4.65272E-03

  1)  N5-S1-N4-H6( 17)  0.66678
      O2-S1-N4-H6( 11)  0.64099
  
  energy change:           3.6047E-06 *  (  5.0000E-05 )
  gradient maximum:        4.7289E-04 .  (  4.5000E-04 )
  gradient rms:            1.6957E-04 *  (  3.0000E-04 )
  displacement maximum:    1.3453E-03 *  (  1.8000E-03 )
  displacement rms:        4.3170E-04 *  (  1.2000E-03 )
  
  predicted energy change:  -5.8632E-07
  step size:     0.00198
  trust radius:  0.20000
  
  molecular structure not yet converged...
  
  center of mass moved by:
     x:     0.0000E+00     y:     0.0000E+00     z:    -1.0690E-04
  
  new geometry: 
                                   angstroms
  atom               x                 y                 z
  S1            0.0000000000      0.0000000000      0.1067903194 
  O2            1.2662361173      0.0000000000      0.7840376088 
  O3           -1.2662361173      0.0000000000      0.7840376088 
  N4            0.0000000000      1.3123430819     -0.9094866658 
  N5            0.0000000000     -1.3123430819     -0.9094866658 
  H6           -0.8372871501      1.8590308507     -0.7502092616 
  H7            0.8372871501      1.8590308507     -0.7502092616 
  H8           -0.8372871501     -1.8590308507     -0.7502092616 
  H9            0.8372871501     -1.8590308507     -0.7502092616 
   
  nuclear repulsion energy.......     284.479864502 hartrees
  -------------------------------------------------
 /  end of geometry optimization iteration   4   /
 -------------------------------------------------
   
  Peak memory usage:    449 Mb
  
  end of program geopt
   
 Time(geopt)  user:        0.0  user+sys:        0.0  wallclock:        0.3
  
  start of program onee
  
  smallest eigenvalue of S:    7.322E-05
  number of canonical orbitals.....          208
  Peak memory usage:    830 Mb
  
  end of program onee
   
 Time(onee)  user:        0.0  user+sys:        0.0  wallclock:        1.7
  
  start of program probe
  
  Peak memory usage:    770 Mb
  
  end of program probe
   
 Time(probe)  user:        0.0  user+sys:        0.0  wallclock:        1.5
  
  start of program grid
  
  
   grid     grid set  grid #  grid sym
  ------    --------  ------  --------
  coarse        0        0        1
  medium        2        1        4
  fine          0        0        1
  ultrafine     4        2        4
  charge       -1        3        4
  gradient      4        2        4
  density       0        0        1
  DFT-fine    -11        4        4
  DFT-med.    -10        5        4
  DFT-grad    -12        6        4
  DFT-der2     -8        7        4
  DFT-cphf     -9        8        4
  LMP2-enrg     4        2        4
  LMP2-grad     2        1        4
  DFT-cphf2   -15        9        4
  PBF-dens      0        0        1
  plotting      0        0        1
  
   
  number of gridpoints: 
     atom        S1       O2       O3       N4       N5       H6       H7
  grid # 1      173      413        0      284        0        0      224
  grid # 2      173      413        0      284        0        0      225
  grid # 3       11      703        0      157        0        0     1237
  grid # 4     6260    11800        0    11800        0        0    22280
  grid # 5      870     1368        0     1368        0        0     2152
  grid # 6     6263    11630        0    11630        0        0    21648
  grid # 7    18129    33152        0    32815        0        0    66806
  grid # 8     1100     4068        0     4812        0        0     9848
  grid # 9      327      863        0     2118        0        0     2486
   
  number of gridpoints: 
     atom        H8       H9    total
  grid # 1        0        0     1094
  grid # 2        0        0     1095
  grid # 3        0        0     2108
  grid # 4        0        0    52140
  grid # 5        0        0     5758
  grid # 6        0        0    51171
  grid # 7        0        0   150902
  grid # 8        0        0    19828
  grid # 9        0        0     5794
   
  Sorting grid blocks by size.
  Peak memory usage:    785 Mb
  
  end of program grid
   
 Time(grid)  user:        0.0  user+sys:        0.0  wallclock:        2.4
  
  start of program rwr
  
  Peak memory usage:    748 Mb
  
  end of program rwr
   
 Time(rwr)  user:        0.0  user+sys:        0.0  wallclock:        2.1
  
  start of program scf
  
  
       i  u  d  i  g                   
       t  p  i  c  r                                 RMS    maximum
       e  d  i  u  i                       energy  density   DIIS  
       r  t  s  t  d       total energy    change  change    error 
  
etot    1  N  N  1  U    -660.46627617655           6.7E-06  1.5E-04
etot    2  N  Y  1  U    -660.46627624834  7.2E-08  2.8E-06  1.9E-04
etot    3  N  N  1  U    -660.46627779448  1.5E-06  0.0E+00  0.0E+00
  
  
 Energy components, in hartrees:
   (A)  Nuclear repulsion............     284.47986450217
   (E)  Total one-electron terms.....   -1472.67176837217
   (F)    Electron-nuclear...........   -2130.03530904546
   (H)    Kinetic....................     657.36354067329
   (I)  Total two-electron terms.....     527.72562607552
   (J)    Coulomb....................     585.92416138852
   (K)    Exchange+Correlation.......     -58.19853531300
   (L)  Electronic energy............    -944.94614229665  (E+I)
   (M)  -V/T.........................       2.00471997141  (-(A+F+I)/H)
   (N)  Total energy.................    -660.46627779448  (A+L)
  
 SCFE: SCF energy: DFT(m06)      -660.46627779448 hartrees   iterations:   3
  
 
 HOMO energy:    -0.30317
 LUMO energy:    -0.04908
 
  Orbital energies (hartrees)/symmetry label: 
   -89.31175 A1        -19.22540 B1        -19.22539 A1        -14.43272 A1     
   -14.43271 B2         -8.27058 A1         -6.18851 A1         -6.18782 B2     
    -6.18702 B1         -1.17320 A1         -1.06004 B1         -0.94835 A1     
    -0.93323 B2         -0.67360 A1         -0.56313 B1         -0.55531 B2     
    -0.54783 A2         -0.53276 A1         -0.46964 B1         -0.39297 A1     
    -0.38976 B2         -0.35770 A2         -0.35324 A1         -0.34426 B1     
    -0.30317 B2         -0.04908 A1         -0.03442 B2         -0.02067 B1     
    -0.00386 A2          0.00269 A1          0.02288 B2          0.02667 A1     
     0.03712 B1          0.04211 A1          0.06428 B1     
 
  Peak memory usage:    852 Mb
  
  end of program scf
   
 Time(scf)  user:        7.0  user+sys:        8.0  wallclock:       11.0
  
  start of program der1a
  
  Peak memory usage:    830 Mb
  
  end of program der1a
   
 Time(der1a)  user:        0.0  user+sys:        0.0  wallclock:        1.6
  
  start of program rwr
  
  Peak memory usage:    748 Mb
  
  end of program rwr
   
 Time(rwr)  user:        0.0  user+sys:        0.0  wallclock:        1.9
  
  start of program der1b
  
   
  forces (hartrees/bohr) : total     
   
 atom  label           x              y              z
 ---- --------   -------------  -------------  -------------
    1 S1          0.000000E+00   0.000000E+00  -6.564323E-04
    2 O2          2.651575E-06   2.775558E-17  -3.978957E-04
    3 O3         -2.651575E-06  -2.775558E-17  -3.978957E-04
    4 N4          0.000000E+00   7.476014E-05  -5.506084E-04
    5 N5          0.000000E+00  -7.476014E-05  -5.506084E-04
    6 H6          3.277857E-05  -3.205484E-05  -5.297657E-04
    7 H7         -3.277857E-05  -3.205484E-05  -5.297657E-04
    8 H8          3.277857E-05   3.205484E-05  -5.297657E-04
    9 H9         -3.277857E-05   3.205484E-05  -5.297657E-04
 -------------   -------------  -------------  -------------
     total        0.000000E+00   0.000000E+00  -4.672503E-03
   
  Peak memory usage:    853 Mb
  
  end of program der1b
   
 Time(der1b)  user:        6.0  user+sys:        6.0  wallclock:       10.5
  
  start of program geopt
  
  geometry optimization step  5
  energy:            -660.46627779448 hartrees
  
  TS search will follow eigenvector   1 on this iteration
  
  Selected vector:  eigenvalue    -8.08550E-04

  1)  N4-S1-N5-H8( 14)  0.60360
      N5-S1-N4-H6( 17)  0.57816
      O2-S1-N4-H6( 11)  0.52635
  
  energy change:           2.6571E-06 *  (  5.0000E-05 )
  gradient maximum:        2.2675E-04 *  (  4.5000E-04 )
  gradient rms:            8.0482E-05 *  (  3.0000E-04 )
  displacement maximum:    5.5694E-04 *  (  1.8000E-03 )
  displacement rms:        2.5228E-04 *  (  1.2000E-03 )
  
  predicted energy change:  -1.3582E-07
  step size:     0.00116
  trust radius:  0.20000
  
  ********************************************************
  **           Geometry optimization complete           **
  ********************************************************
  
  center of mass moved by:
     x:     0.0000E+00     y:     0.0000E+00     z:     0.0000E+00
  
  final geometry: 
                                   angstroms
  atom               x                 y                 z
  S1            0.0000000000      0.0000000000      0.1067903194 
  O2            1.2662361173      0.0000000000      0.7840376088 
  O3           -1.2662361173      0.0000000000      0.7840376088 
  N4            0.0000000000      1.3123430819     -0.9094866658 
  N5            0.0000000000     -1.3123430819     -0.9094866658 
  H6           -0.8372871501      1.8590308507     -0.7502092616 
  H7            0.8372871501      1.8590308507     -0.7502092616 
  H8           -0.8372871501     -1.8590308507     -0.7502092616 
  H9            0.8372871501     -1.8590308507     -0.7502092616 
   
  principal moments of inertia:
        amu*angstrom^2:       99.58101      107.62943      116.28275
                g*cm^2: 1.65358132E-38 1.78722857E-38 1.93092019E-38
   
  rotational constants:
               cm^(-1):      0.16928559      0.15662657      0.14497103
                   GHz:      5.07505420      4.69554647      4.34612205
   
  nuclear repulsion energy.......     284.479864502 hartrees
  -------------------------------------------------
 /  end of geometry optimization iteration   5   /
 -------------------------------------------------
   
  Peak memory usage:    449 Mb
  
  end of program geopt
   
 Time(geopt)  user:        0.0  user+sys:        0.0  wallclock:        0.3
  
  start of program ch
  
  Moments from quantum mechanical wavefunction:
  Dipole Moments  (Debye)
     X=     0.0000     Y=     0.0000     Z=    -1.9952  Tot=     1.9952
  
  gridpoints used for charge fit         2039
    out of a possible maximum of         2108
  
   Electrostatic potential fitting constrained to reproduce
     total charge:                yes
     dipole moment:               yes
     traceless quadrupole moment: no 
     traceless octapole moment:   no 
  
  Atomic charges from electrostatic potential: 
   
 Atom       S1           O2           O3           N4           N5      
 Charge    0.95326     -0.47310     -0.47310     -0.68867     -0.68867
   
 Atom       H6           H7           H8           H9      
 Charge    0.34257      0.34257      0.34257      0.34257
  
  sum of atomic charges:     0.000000
   
 RMS Error   1.67E-03 hartrees
 
  
  Moments from electrostatic potential charges:
  Dipole Moments  (Debye)
     X=     0.0000     Y=     0.0000     Z=    -1.9952  Tot=     1.9952
  
  Peak memory usage:    757 Mb
  
  end of program ch
   
 Time(ch)  user:        0.0  user+sys:        0.0  wallclock:        2.5
  
  start of program cutabab2
  
  Peak memory usage:    553 Mb
  
  end of program cutabab2
   
 Time(cutabab2)  user:        1.0  user+sys:        1.0  wallclock:        1.3
  
  start of program der2a
  
  Peak memory usage:    600 Mb
  
  end of program der2a
   
 Time(der2a)  user:        0.0  user+sys:        0.0  wallclock:        0.9
  
  start of program grid
  
  
   Turning symmetry off because some of the
   following programs cannot use it.
  
   grid     grid set  grid #  grid sym
  ------    --------  ------  --------
  coarse        0        0        1
  medium        2        1        4
  fine          0        0        1
  ultrafine     4        2        4
  charge       -1        3        4
  gradient      4        2        4
  density       0        0        1
  DFT-fine    -11        4        4
  DFT-med.    -10        5        4
  DFT-grad    -12        6        4
  DFT-der2     -8        7        4
  DFT-cphf     -9        8        4
  LMP2-enrg     4        2        4
  LMP2-grad     2        1        4
  DFT-cphf2   -15        9        4
  PBF-dens      0        0        1
  plotting      0        0        1
  
   
  number of gridpoints: 
     atom        S1       O2       O3       N4       N5       H6       H7
  grid # 1      548      732      732      496      496      224      224
  grid # 2      548      732      732      496      496      225      225
  grid # 3       22     1291     1291      270      270     1237     1237
  grid # 4    22182    22182    22182    22182    22182    22182    22182
  grid # 5     2152     2152     2152     2152     2152     2152     2152
  grid # 6    21660    21660    21660    21660    21660    21660    21660
  grid # 7    65632    63040    63040    62394    62394    66806    66806
  grid # 8     3460     7568     7568     8972     8972     9848     9848
  grid # 9      802     1434     1434     3748     3748     2486     2486
   
  number of gridpoints: 
     atom        H8       H9    total
  grid # 1      224      224     3900
  grid # 2      225      225     3904
  grid # 3     1237     1237     8092
  grid # 4    22182    22182   199638
  grid # 5     2152     2152    19368
  grid # 6    21660    21660   194940
  grid # 7    66806    66806   583724
  grid # 8     9848     9848    75932
  grid # 9     2486     2486    21110
   
  Sorting grid blocks by size.
  Peak memory usage:    785 Mb
  
  end of program grid
   
 Time(grid)  user:        2.0  user+sys:        5.0  wallclock:       10.0
  
  start of program der2b
  
  Peak memory usage:    963 Mb
  
  end of program der2b
   
 Time(der2b)  user:      301.0  user+sys:      320.0  wallclock:      322.7
  
  start of program der2nda
  
 
  Peak memory usage:    599 Mb
  
  end of program der2nda
   
 Time(der2nda)  user:        0.0  user+sys:        0.0  wallclock:        0.9
  
  start of program der2ndb
  
  Peak memory usage:    798 Mb
  
  end of program der2ndb
   
 Time(der2ndb)  user:      781.0  user+sys:      886.0  wallclock:      888.5
  
  start of program rwr
  
  Peak memory usage:    749 Mb
  
  end of program rwr
   
 Time(rwr)  user:        1.0  user+sys:        1.0  wallclock:        2.4
  
  start of program cphfa
  
       1  vectors produced in CPHF
  
     v    i  j  k  i  g
     e    t  c  c  c  r
     c    e  o  o  u  i
     t    r  r  r  t  d       RMS  
  
     1    1  0  0  6  M     1.6E-02
     1    2  0  0  6  M     1.1E-03
     1    3  0  0  6  M     3.4E-04
     1    4  0  0  6  M     1.2E-04
     1    5  0  0  6  M     3.9E-05
  
  
  Atomic Polar Tensors (au): Total
  =========================
  
  APT for atom S1      
  --------------------------------------
        2.2462       0.0000       0.0000
        0.0000       2.6124       0.0000
        0.0000       0.0000       1.9593
  --------------------------------------
  
  APT for atom O2      
  --------------------------------------
       -1.0660       0.0000      -0.3903
        0.0000      -0.7176       0.0000
       -0.2355       0.0000      -0.7278
  --------------------------------------
  
  APT for atom O3      
  --------------------------------------
       -1.0660       0.0000       0.3903
        0.0000      -0.7176       0.0000
        0.2355       0.0000      -0.7278
  --------------------------------------
  
  APT for atom N4      
  --------------------------------------
       -0.4411       0.0000       0.0000
        0.0000      -0.8854       0.2692
        0.0000       0.3833      -0.7480
  --------------------------------------
  
  APT for atom N5      
  --------------------------------------
       -0.4411       0.0000       0.0000
        0.0000      -0.8854      -0.2692
        0.0000      -0.3833      -0.7480
  --------------------------------------
  
  APT for atom H6      
  --------------------------------------
        0.1918      -0.0481       0.0579
       -0.0029       0.1484       0.0155
        0.0577      -0.0348       0.2480
  --------------------------------------
  
  APT for atom H7      
  --------------------------------------
        0.1918       0.0481      -0.0579
        0.0029       0.1484       0.0155
       -0.0577      -0.0348       0.2480
  --------------------------------------
  
  APT for atom H8      
  --------------------------------------
        0.1918       0.0481       0.0579
        0.0029       0.1484      -0.0155
        0.0577       0.0348       0.2480
  --------------------------------------
  
  APT for atom H9      
  --------------------------------------
        0.1918      -0.0481      -0.0579
       -0.0029       0.1484      -0.0155
       -0.0577       0.0348       0.2480
  --------------------------------------
  
  Peak memory usage:    860 Mb
  
  end of program cphfa
   
 Time(cphfa)  user:      274.0  user+sys:      279.0  wallclock:      280.5
  
  start of program freq
  
   
  harmonic frequencies in cm**-1, reduced masses in amu,
  force constants in mDyne/A, and
  normal modes in cartesian coordinates:
  IR intensities in km/mol
  
  frequencies      -149.23   257.08   338.64   399.67   429.65   504.86
  symmetries       A2       B1       A1       A2       B1       A1      
  intensities         0.00    72.39     6.59     0.00     1.36     3.60
  reduc. mass         0.36     0.24     3.07     2.54     2.36     3.06
  force const         0.00     0.01     0.21     0.24     0.26     0.46
    S1       X     0.00000  0.00562  0.00001  0.00000 -0.07690  0.00000
    S1       Y     0.00000  0.00000  0.00000  0.00000  0.00000  0.00000
    S1       Z     0.00000  0.00000  0.02105  0.00000  0.00000  0.07805
    O2       X     0.00000 -0.00679 -0.04281  0.00000 -0.02406  0.08863
    O2       Y     0.02785  0.00000  0.00000 -0.12819 -0.00001  0.00000
    O2       Z     0.00000  0.02980  0.09365  0.00000 -0.09794 -0.07196
    O3       X     0.00000 -0.00679  0.04282  0.00000 -0.02405 -0.08863
    O3       Y    -0.02785  0.00000  0.00000  0.12819  0.00000  0.00000
    O3       Z     0.00000 -0.02980  0.09362  0.00000  0.09796 -0.07195
    N4       X     0.07610 -0.02712 -0.00001 -0.08649  0.08939  0.00000
    N4       Y     0.00000  0.00000 -0.08642  0.00000 -0.00001 -0.09352
    N4       Z     0.00000  0.00000 -0.11089  0.00000 -0.00001  0.01706
    N5       X    -0.07609 -0.02713 -0.00001  0.08648  0.08940  0.00000
    N5       Y     0.00000  0.00000  0.08642  0.00000  0.00001  0.09351
    N5       Z     0.00000  0.00000 -0.11089  0.00000 -0.00001  0.01705
    H6       X    -0.13005  0.19771  0.00968 -0.19792  0.17975 -0.01533
    H6       Y    -0.20571  0.23588 -0.05946 -0.15727  0.16024 -0.07487
    H6       Z    -0.37747  0.37488 -0.13961 -0.04227 -0.08324 -0.16649
    H7       X    -0.13005  0.19771 -0.00972 -0.19792  0.17975  0.01533
    H7       Y     0.20571 -0.23587 -0.05944  0.15728 -0.16025 -0.07487
    H7       Z     0.37746 -0.37488 -0.13962  0.04227  0.08320 -0.16649
    H8       X     0.13002  0.19771  0.00969  0.19791  0.17976 -0.01532
    H8       Y    -0.20567 -0.23589  0.05946 -0.15727 -0.16025  0.07487
    H8       Z     0.37742  0.37492 -0.13960  0.04230 -0.08323 -0.16648
    H9       X     0.13002  0.19771 -0.00972  0.19791  0.17976  0.01533
    H9       Y     0.20567  0.23589  0.05943  0.15727  0.16026  0.07486
    H9       Z    -0.37742 -0.37494 -0.13961 -0.04229  0.08319 -0.16647
  
  frequencies       544.54   610.91   689.22   816.56   937.08  1090.16
  symmetries       B2       B2       A1       A1       B2       A2      
  intensities        92.10    61.58   352.23     0.28   184.98     0.00
  reduc. mass         2.93     1.58     0.89     2.41     7.16     0.30
  force const         0.51     0.35     0.25     0.95     3.70     0.21
    S1       X     0.00000  0.00000  0.00000  0.00000  0.00000  0.00000
    S1       Y     0.07494  0.02995  0.00000  0.00000 -0.11933  0.00000
    S1       Z     0.00000 -0.00001  0.05205  0.06176  0.00000  0.00000
    O2       X     0.00000 -0.00001  0.05548  0.04038  0.00000  0.00000
    O2       Y    -0.11958  0.01725  0.00000  0.00000  0.02302 -0.01621
    O2       Z     0.00000  0.00000 -0.01274  0.01562  0.00000  0.00000
    O3       X     0.00000  0.00000 -0.05548 -0.04038  0.00000  0.00000
    O3       Y    -0.11959  0.01725  0.00000  0.00000  0.02302  0.01621
    O3       Z     0.00000  0.00000 -0.01275  0.01562  0.00000  0.00000
    N4       X     0.00000  0.00000  0.00000  0.00000  0.00000 -0.06709
    N4       Y     0.04254 -0.04525  0.00646  0.12470  0.09567  0.00000
    N4       Z    -0.06682  0.12007 -0.09668 -0.05432 -0.02282  0.00000
    N5       X     0.00000  0.00000  0.00000  0.00000  0.00000  0.06708
    N5       Y     0.04254 -0.04525 -0.00647 -0.12469  0.09567  0.00000
    N5       Z     0.06682 -0.12006 -0.09670 -0.05432  0.02282  0.00000
    H6       X    -0.01421 -0.07356  0.07361 -0.02496 -0.02735  0.09396
    H6       Y     0.05903 -0.06010  0.02385  0.13370  0.09904  0.32736
    H6       Z    -0.20677 -0.33941  0.36003 -0.23645 -0.23054 -0.31422
    H7       X     0.01421  0.07357 -0.07360  0.02496  0.02735  0.09396
    H7       Y     0.05903 -0.06010  0.02383  0.13370  0.09905 -0.32735
    H7       Z    -0.20677 -0.33942  0.36003 -0.23645 -0.23054  0.31421
    H8       X     0.01421  0.07356  0.07362 -0.02496  0.02735 -0.09396
    H8       Y     0.05903 -0.06010 -0.02386 -0.13370  0.09905  0.32734
    H8       Z     0.20677  0.33938  0.36007 -0.23645  0.23055  0.31420
    H9       X    -0.01421 -0.07355 -0.07361  0.02496 -0.02735 -0.09396
    H9       Y     0.05903 -0.06010 -0.02384 -0.13370  0.09905 -0.32734
    H9       Z     0.20677  0.33938  0.36007 -0.23645  0.23055 -0.31419
  
  frequencies      1132.26  1193.49  1440.25  1559.57  1583.54  3510.14
  symmetries       B1       A1       B1       B2       A1       B2      
  intensities         5.21   174.35   291.71    82.46     2.21    76.48
  reduc. mass         0.41     6.27     8.84     0.27     0.25     0.24
  force const         0.31     5.27    10.81     0.39     0.37     1.77
    S1       X     0.00065  0.00000  0.12165  0.00000  0.00000  0.00000
    S1       Y     0.00000  0.00000  0.00000 -0.00085  0.00000 -0.00057
    S1       Z     0.00000 -0.08683  0.00000  0.00000  0.01617  0.00000
    O2       X     0.04947  0.12952 -0.10769  0.00000 -0.00936  0.00000
    O2       Y     0.00000  0.00000  0.00000  0.00178  0.00000  0.00068
    O2       Z     0.04399  0.08034 -0.05236  0.00000 -0.00599  0.00000
    O3       X     0.04947 -0.12952 -0.10769  0.00000  0.00935  0.00000
    O3       Y     0.00000  0.00000  0.00000  0.00178  0.00000  0.00068
    O3       Z    -0.04399  0.08034  0.05237  0.00000 -0.00599  0.00000
    N4       X    -0.06869  0.00000 -0.01975  0.00000  0.00000  0.00000
    N4       Y     0.00000 -0.00277  0.00000 -0.05681  0.05001 -0.03699
    N4       Z     0.00000  0.00879  0.00000  0.01584 -0.01660 -0.00728
    N5       X    -0.06870  0.00000 -0.01975  0.00000  0.00000  0.00000
    N5       Y     0.00000  0.00277  0.00000 -0.05680 -0.05002 -0.03694
    N5       Z     0.00000  0.00879  0.00000 -0.01584 -0.01660  0.00727
    H6       X     0.07949 -0.03119  0.02695  0.26949 -0.26767 -0.41147
    H6       Y     0.30250 -0.04743  0.08753  0.38734 -0.39093  0.25610
    H6       Z    -0.28750 -0.00998 -0.07611 -0.03533  0.03462  0.06008
    H7       X     0.07950  0.03119  0.02694 -0.26949  0.26767  0.41147
    H7       Y    -0.30251 -0.04744 -0.08752  0.38734 -0.39093  0.25610
    H7       Z     0.28749 -0.00997  0.07612 -0.03533  0.03462  0.06008
    H8       X     0.07950 -0.03119  0.02695 -0.26944 -0.26772  0.41093
    H8       Y    -0.30253  0.04744 -0.08753  0.38727  0.39100  0.25577
    H8       Z    -0.28752 -0.00997 -0.07611  0.03532  0.03462 -0.06000
    H9       X     0.07950  0.03119  0.02694  0.26944  0.26772 -0.41093
    H9       Y     0.30253  0.04744  0.08752  0.38727  0.39099  0.25576
    H9       Z     0.28751 -0.00998  0.07612  0.03532  0.03461 -0.06000
  
  frequencies      3512.33  3616.24  3616.96
  symmetries       A1       A2       B1      
  intensities         0.86     0.00   109.16
  reduc. mass         0.24     0.26     0.26
  force const         1.77     2.03     2.03
    S1       X     0.00000  0.00000 -0.00059
    S1       Y     0.00000  0.00000  0.00000
    S1       Z    -0.00079  0.00000  0.00000
    O2       X    -0.00057  0.00000  0.00032
    O2       Y     0.00000 -0.00004  0.00000
    O2       Z    -0.00053  0.00000  0.00023
    O3       X     0.00057  0.00000  0.00032
    O3       Y     0.00000  0.00004  0.00000
    O3       Z    -0.00053  0.00000 -0.00023
    N4       X     0.00000  0.05581 -0.05620
    N4       Y    -0.03729  0.00000  0.00000
    N4       Z    -0.00712  0.00000  0.00000
    N5       X     0.00000 -0.05601 -0.05600
    N5       Y     0.03734  0.00000  0.00000
    N5       Z    -0.00713  0.00000  0.00000
    H6       X    -0.41090 -0.39099  0.39255
    H6       Y     0.25552  0.25997 -0.26039
    H6       Z     0.05991  0.07117 -0.07146
    H7       X     0.41089 -0.39099  0.39256
    H7       Y     0.25551 -0.25997  0.26039
    H7       Z     0.05990 -0.07117  0.07146
    H8       X    -0.41143  0.39241  0.39113
    H8       Y    -0.25586  0.26091  0.25945
    H8       Z     0.05998 -0.07142 -0.07120
    H9       X     0.41143  0.39241  0.39114
    H9       Y    -0.25585 -0.26091 -0.25946
    H9       Z     0.05998  0.07142  0.07120
  
  Number of imaginary frequencies:   1
   
  Writing vibrational animation data to c2v2.vib
  Writing vibrational spectrum data to c2v2_vib.spm
  
  Thermochemical properties at    1.0000 atm
  
  rotational symmetry number:  2

  rotational temperatures (K):      0.243564      0.225350      0.208581
   
    1 vibrational frequencies below  10.0 cm-1 not included in zero-point
  energy or thermochemical analysis.  Set freqcut to change the frequency
  cutoff value.

  vibrational temperatures:
       mode:      2        3        4        5        6        7
  temp. (K):   369.88   487.23   575.04   618.16   726.38   783.47
   
       mode:      8        9       10       11       12       13
  temp. (K):   878.96   991.63  1174.85  1348.24  1568.49  1629.07
   
       mode:     14       15       16       17       18       19
  temp. (K):  1717.17  2072.20  2243.88  2278.35  5050.30  5053.45
   
       mode:     20       21
  temp. (K):  5202.95  5203.99
   
   
  Thermodynamic properties calculated assuming an ideal gas

  In the table below, the units for temperature
  are kelvins, the units for U, H, and G are
  kcal/mol and the units for Cv and S are cal/(mol K)

  The zero point energy (ZPE):     39.718 kcal/mol
  is not included in U, H, or G in the table below


  T =   298.15 K
   
              U         Cv          S          H          G        ln(Q)
          ---------  ---------  ---------  ---------  ---------  ---------
  trans.      0.889      2.981     39.596      1.481    -10.324   17.42564
    rot.      0.889      2.981     24.166      0.889     -6.316   10.66056
    vib.      1.460     12.510      7.185      1.460     -0.683    1.15203
   elec.      0.000      0.000      0.000      0.000      0.000    0.00000
   total      3.237     18.472     70.947      3.830    -17.323   29.23823
   
  Total internal energy, Utot (SCFE + ZPE + U):    -660.397824 hartrees
              Total enthalpy, Htot (Utot + pV):    -660.396880 hartrees
    Total Gibbs free energy, Gtot (Htot - T*S):    -660.430589 hartrees
   
  Peak memory usage:    449 Mb
  
  end of program freq
   
 Time(freq)  user:        0.0  user+sys:        0.0  wallclock:        0.9
  
  start of program post
  
  Peak memory usage:    488 Mb
  
  end of program post
   
 Time(post)  user:        0.0  user+sys:        0.0  wallclock:        0.9

 *********************************** NBO 6.0 ***********************************
             N A T U R A L   A T O M I C   O R B I T A L   A N D
          N A T U R A L   B O N D   O R B I T A L   A N A L Y S I S
 ************************* Schrodinger,  Inc. (100193) *************************
  (c) Copyright 1996-2013 Board of Regents of the University of Wisconsin System
      on behalf of the Theoretical Chemistry Institute.  All rights reserved.

          Cite this program as:

          NBO 6.0.  E. D. Glendening, J. K. Badenhoop, A. E. Reed,
          J. E. Carpenter, J. A. Bohmann, C. M. Morales, C. R. Landis,
          and F. Weinhold (Theoretical Chemistry Institute, University
          of Wisconsin, Madison, WI, 2013); http://nbo6.chem.wisc.edu/

       /NRT    / : Natural Resonance Theory Analysis
       /PRINT  / : Print level set to 3

 Filename set to FILE

 Job title:  c2v2:  Input generated by Jaguar v8.1


 Atom distance matrix: (Angstroms)

     Atom    1       2       3       4       5       6       7       8       9
     ---- ------  ------  ------  ------  ------  ------  ------  ------  ------
   1.  S  0.0000  1.4360  1.4360  1.6598  1.6598  2.2117  2.2117  2.2117  2.2117
   2.  O  1.4360  0.0000  2.5325  2.4887  2.4887  3.1992  2.4482  3.1992  2.4482
   3.  O  1.4360  2.5325  0.0000  2.4887  2.4887  2.4482  3.1992  2.4482  3.1992
   4.  N  1.6598  2.4887  2.4887  0.0000  2.6247  1.0126  1.0126  3.2839  3.2839
   5.  N  1.6598  2.4887  2.4887  2.6247  0.0000  3.2839  3.2839  1.0126  1.0126
   6.  H  2.2117  3.1992  2.4482  1.0126  3.2839  0.0000  1.6746  3.7181  4.0778
   7.  H  2.2117  2.4482  3.1992  1.0126  3.2839  1.6746  0.0000  4.0778  3.7181
   8.  H  2.2117  3.1992  2.4482  3.2839  1.0126  3.7181  4.0778  0.0000  1.6746
   9.  H  2.2117  2.4482  3.1992  3.2839  1.0126  4.0778  3.7181  1.6746  0.0000


 NATURAL POPULATIONS:  Natural atomic orbital occupancies

  NAO Atom No lang   Type(AO)    Occupancy      Energy
 ---------------------------------------------------------
   1    S  1  s      Cor( 1s)     2.00000     -87.94440
   2    S  1  s      Cor( 2s)     1.99958      -9.40415
   3    S  1  s      Val( 3s)     1.02645      -0.55556
   4    S  1  s      Ryd( 4s)     0.00355       1.05640
   5    S  1  s      Ryd( 5s)     0.00005       2.91050
   6    S  1  s      Ryd( 6s)     0.00001       2.83989
   7    S  1  s      Ryd( 7s)     0.00000       2.28034
   8    S  1  s      Ryd( 8s)     0.00000       3.13455
   9    S  1  s      Ryd( 9s)     0.00000       4.69381
  10    S  1  px     Cor( 2p)     1.99984      -6.17074
  11    S  1  px     Val( 3p)     0.72380      -0.13495
  12    S  1  px     Ryd( 4p)     0.01425       1.22409
  13    S  1  px     Ryd( 5p)     0.00006       2.77593
  14    S  1  px     Ryd( 6p)     0.00003       0.68346
  15    S  1  py     Cor( 2p)     1.99995      -6.17611
  16    S  1  py     Val( 3p)     0.85654      -0.20276
  17    S  1  py     Ryd( 4p)     0.00375       1.24148
  18    S  1  py     Ryd( 5p)     0.00007       1.05072
  19    S  1  py     Ryd( 6p)     0.00004       0.70507
  20    S  1  pz     Cor( 2p)     1.99992      -6.17587
  21    S  1  pz     Val( 3p)     0.80402      -0.18935
  22    S  1  pz     Ryd( 4p)     0.01004       1.18707
  23    S  1  pz     Ryd( 5p)     0.00018       2.10668
  24    S  1  pz     Ryd( 6p)     0.00005       0.78190
  25    S  1  dxy    Ryd( 3d)     0.03872       0.86137
  26    S  1  dxy    Ryd( 4d)     0.00036       0.85648
  27    S  1  dxy    Ryd( 5d)     0.00002       2.27944
  28    S  1  dxz    Ryd( 3d)     0.03172       1.08325
  29    S  1  dxz    Ryd( 4d)     0.00052       0.81365
  30    S  1  dxz    Ryd( 5d)     0.00036       1.87553
  31    S  1  dyz    Ryd( 3d)     0.03416       1.00093
  32    S  1  dyz    Ryd( 4d)     0.00019       0.53883
  33    S  1  dyz    Ryd( 5d)     0.00001       1.89309
  34    S  1  dx2y2  Ryd( 3d)     0.03725       1.08671
  35    S  1  dx2y2  Ryd( 4d)     0.00042       0.94540
  36    S  1  dx2y2  Ryd( 5d)     0.00024       1.87375
  37    S  1  dz2    Ryd( 3d)     0.03248       0.83711
  38    S  1  dz2    Ryd( 4d)     0.00018       0.72808
  39    S  1  dz2    Ryd( 5d)     0.00018       2.01324

  40    O  2  s      Cor( 1s)     1.99984     -18.97998
  41    O  2  s      Val( 2s)     1.82071      -1.04226
  42    O  2  s      Ryd( 3s)     0.00075       2.72891
  43    O  2  s      Ryd( 4s)     0.00015       6.86661
  44    O  2  s      Ryd( 5s)     0.00007       3.66102
  45    O  2  s      Ryd( 6s)     0.00002       2.96851
  46    O  2  s      Ryd( 7s)     0.00000       5.72193
  47    O  2  s      Ryd( 8s)     0.00000      13.44064
  48    O  2  px     Val( 2p)     1.55447      -0.35332
  49    O  2  px     Ryd( 3p)     0.00061       0.82244
  50    O  2  px     Ryd( 4p)     0.00021       0.79964
  51    O  2  px     Ryd( 5p)     0.00010       4.26213
  52    O  2  py     Val( 2p)     1.81187      -0.32077
  53    O  2  py     Ryd( 3p)     0.00096       0.71465
  54    O  2  py     Ryd( 4p)     0.00008       0.58246
  55    O  2  py     Ryd( 5p)     0.00000       3.97874
  56    O  2  pz     Val( 2p)     1.71043      -0.32627
  57    O  2  pz     Ryd( 3p)     0.00062       0.69699
  58    O  2  pz     Ryd( 4p)     0.00010       0.72509
  59    O  2  pz     Ryd( 5p)     0.00003       4.03705
[...]
                                             deloc  26: -0.04  0.00 -0.06  0.07
                                             deloc  36:  0.02  0.00 -0.04  0.04
                                             deloc  34:  0.03  0.00  0.01  0.03
                                             deloc  40: -0.03  0.00  0.02  0.03

  14. LP ( 2) O 3             8.01  0.00 -5.06  9.47    10.50  0.00 -6.52 12.36
                                             deloc  28: -0.72 -0.10  0.51  0.88
                                             deloc  29: -0.72  0.10  0.51  0.88
                                             deloc  37: -0.44  0.00  0.29  0.52
                                             deloc  35: -0.44  0.00  0.04  0.44
                                             deloc  11: -0.06  0.00  0.02  0.06
                                             deloc 124: -0.02  0.00  0.03  0.03
                                             deloc 154: -0.02  0.00  0.03  0.03
                                             deloc  31: -0.02 -0.01  0.01  0.02
                                             deloc  33: -0.02  0.01  0.01  0.02

  15. LP ( 3) O 3             7.68  0.00 -4.59  8.95    10.68  0.00 -6.23 12.36
                                             deloc  26: -1.41  0.00  0.67  1.56
                                             deloc  34: -0.62  0.00  0.16  0.64
                                             deloc  36: -0.18  0.00  0.43  0.47
                                             deloc  28: -0.29 -0.03  0.12  0.32
                                             deloc  29: -0.29  0.03  0.12  0.32
                                             deloc  31: -0.03 -0.04  0.05  0.07
                                             deloc  33: -0.03  0.04  0.05  0.07
                                             deloc  38: -0.05  0.00  0.01  0.05
                                             deloc  27: -0.02  0.00 -0.03  0.03
                                             deloc  12: -0.03  0.00  0.00  0.03
                                             deloc  39: -0.01  0.00 -0.02  0.02
                                             deloc 124: -0.01 -0.02  0.01  0.02
                                             deloc 154: -0.01  0.02  0.01  0.02

  16. LP ( 1) N 4             0.00 -8.62 11.52 14.39     0.00 -9.49 12.64 15.81
                                             deloc  38:  0.00  0.28 -0.30  0.41
                                             deloc  29:  0.00  0.20 -0.32  0.38
                                             deloc  26: -0.06  0.11 -0.10  0.16
                                             deloc  27:  0.06  0.11 -0.10  0.16
                                             deloc  35:  0.00  0.01 -0.10  0.10
                                             deloc  12: -0.02  0.04 -0.05  0.07
                                             deloc  15:  0.02  0.04 -0.05  0.07
                                             deloc 184:  0.04 -0.04 -0.01  0.06
                                             deloc 196: -0.04 -0.04 -0.01  0.06
                                             deloc  30: -0.04  0.02 -0.01  0.04
                                             deloc  31:  0.04  0.02 -0.01  0.04
                                             deloc  34:  0.00  0.03 -0.02  0.04
                                             deloc  28:  0.00 -0.03  0.01  0.03
                                             deloc  42:  0.00  0.00  0.03  0.03
                                             deloc  11:  0.00  0.02 -0.01  0.02
                                             deloc  14:  0.00  0.02 -0.01  0.02
                                             deloc 157:  0.00  0.02  0.00  0.02

  17. LP ( 1) N 5             0.00  8.62 11.52 14.39     0.00  9.49 12.64 15.81
                                             deloc  38:  0.00 -0.28 -0.30  0.41
                                             deloc  28:  0.00 -0.20 -0.32  0.38
                                             deloc  26: -0.06 -0.11 -0.10  0.16
                                             deloc  27:  0.06 -0.11 -0.10  0.16
                                             deloc  35:  0.00 -0.01 -0.10  0.10
                                             deloc  12: -0.02 -0.04 -0.05  0.07
                                             deloc  15:  0.02 -0.04 -0.05  0.07
                                             deloc 208:  0.04  0.04 -0.01  0.06
                                             deloc 220: -0.04  0.04 -0.01  0.06
                                             deloc  32: -0.04 -0.02 -0.01  0.04
                                             deloc  33:  0.04 -0.02 -0.01  0.04
                                             deloc  34:  0.00 -0.03 -0.02  0.04
                                             deloc  29:  0.00  0.03  0.01  0.03
                                             deloc  42:  0.00  0.00  0.03  0.03
                                             deloc  11:  0.00 -0.02 -0.01  0.02
                                             deloc  14:  0.00 -0.02 -0.01  0.02
                                             deloc 127:  0.00 -0.02  0.00  0.02

  18. BD ( 1) S 1- O 2       -7.67  0.00 -5.11  9.22    -7.79  0.00 -5.32  9.44
                                             deloc  28: -0.02 -0.27  0.17  0.32
                                             deloc  29: -0.02  0.27  0.17  0.32
                                             deloc  27:  0.10  0.00 -0.11  0.15
                                             deloc  12:  0.02  0.00 -0.04  0.04

  19. BD ( 1) S 1- O 3        7.67  0.00 -5.11  9.22     7.79  0.00 -5.32  9.44
                                             deloc  28:  0.02 -0.27  0.17  0.32
                                             deloc  29:  0.02  0.27  0.17  0.32
                                             deloc  26: -0.10  0.00 -0.11  0.15
                                             deloc  15: -0.02  0.00 -0.04  0.04

  20. BD ( 1) S 1- N 4        0.00 -7.88  4.91  9.29     0.00 -8.03  5.07  9.50
                                             deloc  26: -0.26 -0.04 -0.14  0.29
                                             deloc  27:  0.26 -0.04 -0.14  0.29
                                             deloc  29:  0.00  0.19  0.18  0.26
                                             deloc  30:  0.07 -0.03 -0.02  0.08
                                             deloc  31: -0.07 -0.03 -0.02  0.08

  21. BD ( 1) S 1- N 5        0.00  7.88  4.91  9.29     0.00  8.03  5.07  9.50
                                             deloc  26: -0.26  0.04 -0.14  0.29
                                             deloc  27:  0.26  0.04 -0.14  0.29
                                             deloc  28:  0.00 -0.19  0.18  0.26
                                             deloc  32:  0.07  0.03 -0.02  0.08
                                             deloc  33: -0.07  0.03 -0.02  0.08

  22. BD ( 1) N 4- H 6        4.82-14.15  6.62 16.35     4.81-14.41  6.76 16.63
                                             deloc  28:  0.00  0.07 -0.05  0.08
                                             deloc  27: -0.02  0.06 -0.03  0.07
                                             deloc  26: -0.02  0.03 -0.04  0.05
                                             deloc  29:  0.01  0.05 -0.01  0.05
                                             deloc  16:  0.01  0.00  0.03  0.03
                                             deloc  36: -0.01  0.02 -0.02  0.03
                                             deloc  39:  0.00 -0.02  0.02  0.03
                                             deloc  37: -0.01  0.02 -0.02  0.03

  23. BD ( 1) N 4- H 7       -4.82-14.15  6.62 16.35    -4.81-14.41  6.76 16.63
                                             deloc  28:  0.00  0.07 -0.05  0.08
                                             deloc  26:  0.02  0.06 -0.03  0.07
                                             deloc  27:  0.02  0.03 -0.04  0.05
                                             deloc  29: -0.01  0.05 -0.01  0.05
                                             deloc  16: -0.01  0.00  0.03  0.03
                                             deloc  36:  0.01  0.02 -0.02  0.03
                                             deloc  39:  0.00 -0.02  0.02  0.03
                                             deloc  37:  0.01  0.02 -0.02  0.03

  24. BD ( 1) N 5- H 8        4.82 14.15  6.62 16.35     4.81 14.41  6.76 16.63
                                             deloc  29:  0.00 -0.07 -0.05  0.08
                                             deloc  27: -0.02 -0.06 -0.03  0.07
                                             deloc  26: -0.02 -0.03 -0.04  0.05
                                             deloc  28:  0.01 -0.05 -0.01  0.05
                                             deloc  17:  0.01  0.00  0.03  0.03
                                             deloc  36: -0.01 -0.02 -0.02  0.03
                                             deloc  39:  0.00  0.02  0.02  0.03
                                             deloc  37: -0.01 -0.02 -0.02  0.03

  25. BD ( 1) N 5- H 9       -4.82 14.15  6.62 16.35    -4.81 14.41  6.76 16.63
                                             deloc  29:  0.00 -0.07 -0.05  0.08
                                             deloc  26:  0.02 -0.06 -0.03  0.07
                                             deloc  27:  0.02 -0.03 -0.04  0.05
                                             deloc  28: -0.01 -0.05 -0.01  0.05
                                             deloc  17: -0.01  0.00  0.03  0.03
                                             deloc  36:  0.01 -0.02 -0.02  0.03
                                             deloc  39:  0.00  0.02  0.02  0.03
                                             deloc  37:  0.01 -0.02 -0.02  0.03

   Residual nuclear charge    0.00  0.00 -6.51  6.51     0.00  0.00 -6.51  6.51
                            ----------------------------------------------------
         Net dipole moment    0.00  0.00  2.56  2.56     0.00  0.00 -0.93  0.93
 Delocalization correction                               0.00  0.00  3.49  3.49
                            ----------------------------------------------------
       Total dipole moment    0.00  0.00  2.56  2.56     0.00  0.00  2.56  2.56


 NATURAL RESONANCE THEORY ANALYSIS:

 Maximum reference structures : 20
 Maximum resonance structures : 300
 Memory requirements : 3223545 words of 99830816 available

 0 candidate reference structure(s) calculated by SR LEWIS
 Possible hypervalency for atom 1; restart with full density matrix
 8 candidate reference structure(s) calculated by SR LEWIS
 Initial loops searched 8 bonding pattern(s); 8 were retained
 Delocalization list threshold set to 3.11 kcal/mol for reference 1
 Delocalization list threshold set to 1.00 kcal/mol for reference 2
 Delocalization list threshold set to 1.39 kcal/mol for reference 3
 Delocalization list threshold set to 1.39 kcal/mol for reference 4
 Delocalization list threshold set to 3.11 kcal/mol for reference 5
 Delocalization list threshold set to 1.39 kcal/mol for reference 6
 Delocalization list threshold set to 1.39 kcal/mol for reference 7
 Delocalization list threshold set to 4.26 kcal/mol for reference 8
 Reference   1:  rho*=1.55508, f(w)=0.80170 converged after  40 iterations
 Reference   2:  rho*=1.08953, f(w)=0.78592 converged after  25 iterations
 Reference   3:  rho*=1.69779, f(w)=0.56382 converged after  32 iterations
 Reference   4:  rho*=1.69779, f(w)=0.56382 converged after  32 iterations
 Reference   5:  rho*=1.55508, f(w)=0.80170 converged after  40 iterations
 Reference   6:  rho*=1.69779, f(w)=0.56382 converged after  32 iterations
 Reference   7:  rho*=1.69779, f(w)=0.56382 converged after  32 iterations
 Reference   8:  rho*=2.33600, f(w)=0.35163 converged after   7 iterations
 Multi-ref( 8):  D(W)=0.00818, F(W)=0.09463 converged after 243 iterations
 1 reference structure has low weight (<35.0% of 16.9%); discarded
 Multi-ref( 7):  D(W)=0.00818, F(W)=0.09465 converged after 216 iterations

                                                fractional accuracy f(w)
                  non-Lewis             -------------------------------------
  Ref     Wgt      density      d(0)      all NBOs     val+core     valence
 ----------------------------------------------------------------------------
   1    0.17750    1.55508    0.06382     0.80170      0.90807      0.90808
   2    0.29716    1.08953    0.03850     0.78592      0.88369      0.88370
   3    0.08696    1.69779    0.06854     0.56382      0.83462      0.83463
   4    0.08696    1.69779    0.06854     0.56382      0.83462      0.83463
   5    0.17750    1.55508    0.06382     0.80170      0.90807      0.90808
   6    0.08696    1.69779    0.06854     0.56382      0.83462      0.83463
   7    0.08696    1.69779    0.06854     0.56382      0.83462      0.83463


 TOPO matrix for the leading resonance structure:

     Atom  1   2   3   4   5   6   7   8   9
     ---- --- --- --- --- --- --- --- --- ---
   1.  S   0   1   1   1   1   0   0   0   0
   2.  O   1   3   0   0   0   0   0   0   0
   3.  O   1   0   3   0   0   0   0   0   0
   4.  N   1   0   0   1   0   1   1   0   0
   5.  N   1   0   0   0   1   0   0   1   1
   6.  H   0   0   0   1   0   0   0   0   0
   7.  H   0   0   0   1   0   0   0   0   0
   8.  H   0   0   0   0   1   0   0   0   0
   9.  H   0   0   0   0   1   0   0   0   0

         Resonance
    RS   Weight(%)                  Added(Removed)
 ---------------------------------------------------------------------------
    1*(3)  37.14
    2*     10.32   ( S  1- O  2),  S  1- O  3,  O  2, ( O  3)
    3*     10.32    S  1- O  2, ( S  1- O  3), ( O  2),  O  3
    4*(3)   7.48    S  1- O  3, ( S  1- N  4), ( O  3),  N  4
    5*(3)   7.48    S  1- O  3, ( S  1- N  5), ( O  3),  N  5
    6*(3)   7.48    S  1- O  2, ( S  1- N  4), ( O  2),  N  4
    7*(3)   7.48    S  1- O  2, ( S  1- N  5), ( O  2),  N  5
    8       2.32    S  1- O  2,  S  1- O  3, ( S  1- N  4), ( S  1- N  5),
                   ( O  2), ( O  3),  N  4,  N  5
    9       1.16    S  1- O  3,  S  1- O  3, ( S  1- N  4), ( S  1- N  5),
                   ( O  3), ( O  3),  N  4,  N  5
   10       1.16    S  1- O  2,  S  1- O  2, ( S  1- N  4), ( S  1- N  5),
                   ( O  2), ( O  2),  N  4,  N  5
   11       0.71   ( S  1- O  2),  S  1- O  3,  S  1- O  3, ( S  1- N  4),
                    O  2, ( O  3), ( O  3),  N  4
   12       0.71   ( S  1- O  2),  S  1- O  3,  S  1- O  3, ( S  1- N  5),
                    O  2, ( O  3), ( O  3),  N  5
   13       0.71    S  1- O  2,  S  1- O  2, ( S  1- O  3), ( S  1- N  4),
                   ( O  2), ( O  2),  O  3,  N  4
   14       0.71    S  1- O  2,  S  1- O  2, ( S  1- O  3), ( S  1- N  5),
                   ( O  2), ( O  2),  O  3,  N  5
   15 (2)   0.62   ( S  1- O  2),  S  1- N  4,  O  2, ( N  4)
   16 (2)   0.62   ( S  1- O  2),  S  1- N  5,  O  2, ( N  5)
   17 (2)   0.62   ( S  1- O  3),  S  1- N  4,  O  3, ( N  4)
   18 (2)   0.62   ( S  1- O  3),  S  1- N  5,  O  3, ( N  5)
   19       0.42    S  1- N  4, ( S  1- N  5), ( N  4),  N  5
   20       0.42   ( S  1- N  4),  S  1- N  5,  N  4, ( N  5)
   21       0.16   ( S  1- O  2), ( S  1- N  4),  S  1,  N  4
   22       0.16   ( S  1- O  2), ( S  1- N  5),  S  1,  N  5
   23       0.16   ( S  1- O  3), ( S  1- N  4),  S  1,  N  4
   24       0.16   ( S  1- O  3), ( S  1- N  5),  S  1,  N  5
   25       0.11   ( S  1- O  2),  S  1- O  3,  S  1- N  4, ( S  1- N  5),
                    O  2, ( O  3), ( N  4),  N  5
   26       0.11   ( S  1- O  2),  S  1- O  3, ( S  1- N  4),  S  1- N  5,
                    O  2, ( O  3),  N  4, ( N  5)
   27       0.11    S  1- O  2, ( S  1- O  3),  S  1- N  4, ( S  1- N  5),
                   ( O  2),  O  3, ( N  4),  N  5
   28       0.11    S  1- O  2, ( S  1- O  3), ( S  1- N  4),  S  1- N  5,
                   ( O  2),  O  3,  N  4, ( N  5)
   29-70    0.43
 ---------------------------------------------------------------------------
          100.00   * Total *                [* = reference structure]


 Natural Bond Order:  (total/covalent/ionic)

     Atom       1      2      3      4      5      6      7      8      9
     ----   ------ ------ ------ ------ ------ ------ ------ ------ ------
   1.  S  t 0.0094 1.1940 1.1940 0.7966 0.7966 0.0000 0.0000 0.0000 0.0000
          c   ---  0.5783 0.5783 0.5448 0.5448 0.0000 0.0000 0.0000 0.0000
          i   ---  0.6157 0.6157 0.2518 0.2518 0.0000 0.0000 0.0000 0.0000

   2.  O  t 1.1940 2.8019 0.0000 0.0000 0.0000 0.0000 0.0000 0.0000 0.0000
          c 0.5783   ---  0.0000 0.0000 0.0000 0.0000 0.0000 0.0000 0.0000
          i 0.6157   ---  0.0000 0.0000 0.0000 0.0000 0.0000 0.0000 0.0000

   3.  O  t 1.1940 0.0000 2.8019 0.0000 0.0000 0.0000 0.0000 0.0000 0.0000
          c 0.5783 0.0000   ---  0.0000 0.0000 0.0000 0.0000 0.0000 0.0000
          i 0.6157 0.0000   ---  0.0000 0.0000 0.0000 0.0000 0.0000 0.0000

   4.  N  t 0.7966 0.0000 0.0000 1.2035 0.0000 0.9997 0.9997 0.0000 0.0000
          c 0.5448 0.0000 0.0000   ---  0.0000 0.5946 0.5946 0.0000 0.0000
          i 0.2518 0.0000 0.0000   ---  0.0000 0.4050 0.4050 0.0000 0.0000

   5.  N  t 0.7966 0.0000 0.0000 0.0000 1.2035 0.0000 0.0000 0.9997 0.9997
          c 0.5448 0.0000 0.0000 0.0000   ---  0.0000 0.0000 0.5946 0.5946
          i 0.2518 0.0000 0.0000 0.0000   ---  0.0000 0.0000 0.4050 0.4050

   6.  H  t 0.0000 0.0000 0.0000 0.9997 0.0000 0.0000 0.0000 0.0000 0.0000
          c 0.0000 0.0000 0.0000 0.5946 0.0000   ---  0.0000 0.0000 0.0000
          i 0.0000 0.0000 0.0000 0.4050 0.0000   ---  0.0000 0.0000 0.0000

   7.  H  t 0.0000 0.0000 0.0000 0.9997 0.0000 0.0000 0.0000 0.0000 0.0000
          c 0.0000 0.0000 0.0000 0.5946 0.0000 0.0000   ---  0.0000 0.0000
          i 0.0000 0.0000 0.0000 0.4050 0.0000 0.0000   ---  0.0000 0.0000

   8.  H  t 0.0000 0.0000 0.0000 0.0000 0.9997 0.0000 0.0000 0.0000 0.0000
          c 0.0000 0.0000 0.0000 0.0000 0.5946 0.0000 0.0000   ---  0.0000
          i 0.0000 0.0000 0.0000 0.0000 0.4050 0.0000 0.0000   ---  0.0000

   9.  H  t 0.0000 0.0000 0.0000 0.0000 0.9997 0.0000 0.0000 0.0000 0.0000
          c 0.0000 0.0000 0.0000 0.0000 0.5946 0.0000 0.0000 0.0000   ---
          i 0.0000 0.0000 0.0000 0.0000 0.4050 0.0000 0.0000 0.0000   ---


 Natural Atomic Valencies:

                      Co-    Electro-
     Atom  Valency  Valency  Valency
     ----  -------  -------  -------
   1.  S    3.9812   2.2462   1.7350
   2.  O    1.1940   0.5783   0.6157
   3.  O    1.1940   0.5783   0.6157
   4.  N    2.7959   1.7341   1.0619
   5.  N    2.7959   1.7341   1.0619
   6.  H    0.9997   0.5946   0.4050
   7.  H    0.9997   0.5946   0.4050
   8.  H    0.9997   0.5946   0.4050
   9.  H    0.9997   0.5946   0.4050


 $NRTSTR
   STR        ! Wgt = 37.14%
     LONE 2 3 3 3 4 1 5 1 END
     BOND S 1 2 S 1 3 S 1 4 S 1 5 S 4 6 S 4 7 S 5 8 S 5 9 END
   END
   STR        ! Wgt = 10.32%
     LONE 2 4 3 2 4 1 5 1 END
     BOND D 1 3 S 1 4 S 1 5 S 4 6 S 4 7 S 5 8 S 5 9 END
   END
   STR        ! Wgt = 10.32%
     LONE 2 2 3 4 4 1 5 1 END
     BOND D 1 2 S 1 4 S 1 5 S 4 6 S 4 7 S 5 8 S 5 9 END
   END
   STR        ! Wgt =  7.48%
     LONE 2 3 3 2 4 2 5 1 END
     BOND S 1 2 D 1 3 S 1 5 S 4 6 S 4 7 S 5 8 S 5 9 END
   END
   STR        ! Wgt =  7.48%
     LONE 2 3 3 2 4 1 5 2 END
     BOND S 1 2 D 1 3 S 1 4 S 4 6 S 4 7 S 5 8 S 5 9 END
   END
   STR        ! Wgt =  7.48%
     LONE 2 2 3 3 4 2 5 1 END
     BOND D 1 2 S 1 3 S 1 5 S 4 6 S 4 7 S 5 8 S 5 9 END
   END
   STR        ! Wgt =  7.48%
     LONE 2 2 3 3 4 1 5 2 END
     BOND D 1 2 S 1 3 S 1 4 S 4 6 S 4 7 S 5 8 S 5 9 END
   END
 $END

 Maximum scratch memory used by NBO was 3831405 words
 Maximum scratch memory used by GENNBO was 269445 words

 Total cpu seconds     user:     678.000   user+sys:     726.000
  
 Total elapsed time:    3306 seconds

Job c2v2 completed on d6copt069.crc.nd.edu at Fri Apr 11 14:19:49 2014
