Job cs started on d6copt267.crc.nd.edu at Fri Apr 11 13:33:25 2014
jobid: d6copt267-0-53482764

  +--------------------------------------------------------------------+
  |  Jaguar version 8.1, release  14                                   |
  |                                                                    |
  |  Copyright Schrodinger, LLC                                        |
  |  All Rights Reserved.                                              |
  |                                                                    |
  |  Use of this program should be acknowledged in publications as:    |
  |  Jaguar, version 8.1, Schrodinger, LLC, New York, NY, 2013.        |
  +--------------------------------------------------------------------+
  
  start of program pre
  
  Job name: cs
  Executables used: /opt/crc/schrodinger/2013u2/jaguar-v81014/bin/Linux-x86_64
  Temporary files : /tmp/ehansen3/cs#d6copt267-0-53482764
  Maestro file (input):  cs.mae
  Maestro file (output): cs.01.mae
  
  
  basis set:             cc-pvtz(-f)++   
  net molecular charge:    0
  multiplicity:            1
  
  Running   8 MPI processes
   
  Master MPI process running on d6copt267.crc.nd.edu
   Slave MPI process   1 running on d6copt267.crc.nd.edu
   Slave MPI process   2 running on d6copt267.crc.nd.edu
   Slave MPI process   3 running on d6copt267.crc.nd.edu
   Slave MPI process   4 running on d6copt267.crc.nd.edu
   Slave MPI process   5 running on d6copt267.crc.nd.edu
   Slave MPI process   6 running on d6copt267.crc.nd.edu
   Slave MPI process   7 running on d6copt267.crc.nd.edu
  
  number of basis functions....          216
  
 Input geometry:
                                   angstroms
  atom               x                 y                 z
  S1           -0.0106350000     -0.0175080000      0.0047000000 
  O2            1.2439550000      0.0702270000      0.7178100000 
  O3           -1.3109770000      0.0672050000      0.6310130000 
  N4            0.0310900000      1.1677020000     -1.1900000000 
  N5            0.0182090000     -1.4737960000     -0.7794570000 
  H6            0.8622480000      1.7374690000     -1.0659630000 
  H7           -0.8142710000      1.7274130000     -1.1365220000 
  H8           -0.8104670000     -1.6203600000     -1.3445640000 
  H9            0.8816460000     -1.6152500000     -1.2913810000 
   
  principal moments of inertia:
        amu*angstrom^2:      102.60291      108.62692      116.28007
                g*cm^2: 1.70376120E-38 1.80379224E-38 1.93087574E-38
   
  rotational constants:
               cm^(-1):      0.16429972      0.15518832      0.14497436
                   GHz:      4.92558160      4.65242872      4.34622210
   
  Molecular weight:      96.00 amu
   
  Stoichiometry: N2H4SO2
  Molecular Point Group: C1      
  Point Group used: C1
  
 
Number of optimization coordinates:    21
Number of independent coordinates:     21
Number of non-redundant coordinates:   21
Number of frozen coordinates:           0
Number of harmonic constraints:         0
 
Number of geometric degrees of freedom:    21
Maximum geometric degrees of freedom:      21
 " " " " " excluding dummy atoms:          21
 
  nuclear repulsion energy.......     282.684827134 hartrees
 
 Non-default options chosen:
   SCF calculation type: DFT(m06)                    
   DFT=M06
   Geometry will be optimized in redundant internal coordinates
   Vibrational frequencies and related properties will be computed
      from analytic second derivatives
   IR intensities will be computed
   High accuracy cutoffs used in SCF
   Initial Hessian:  analytic 2nd derivatives
   Electrostatic potential fit to point charges on atomic centers
   Electrostatic potential fitting constrained to reproduce
     total charge:                yes
     dipole moment:               yes
     traceless quadrupole moment: no 
     traceless octapole moment:   no 
   Store KE, NAI, and pt. chg. terms separately
  
 Temporary integer options set:
     73=  2
  
  Peak memory usage:    734 Mb
  
  end of program pre
   
 Time(pre)  user:        0.0  user+sys:        0.0  wallclock:        2.2
  
  start of program onee
  
  smallest eigenvalue of S:    5.774E-05
  number of canonical orbitals.....          209
  Peak memory usage:    830 Mb
  
  end of program onee
   
 Time(onee)  user:        0.0  user+sys:        0.0  wallclock:        1.9
  
  start of program hfig
  
  initial wavefunction generated automatically from atomic wavefunctions
 
  Irreducible     Total no   No of occupied orbitals 
  representation  orbitals   Shell_1  Shell_2    ...
  No Symm          209         25
  ------------------------
  Orbital occupation/shell    1.000
 
  Peak memory usage:    770 Mb
  
  end of program hfig
   
 Time(hfig)  user:        0.0  user+sys:        0.0  wallclock:        1.9
  
  start of program probe
  
  Peak memory usage:    770 Mb
  
  end of program probe
   
 Time(probe)  user:        0.0  user+sys:        0.0  wallclock:        1.7
  
  start of program grid
  
  
   grid     grid set  grid #  grid sym
  ------    --------  ------  --------
  coarse        0        0        1
  medium        2        1        1
  fine          0        0        1
  ultrafine     4        2        1
  charge       -1        3        1
  gradient      4        2        1
  density       0        0        1
  DFT-fine    -11        4        1
  DFT-med.    -10        5        1
  DFT-grad    -12        6        1
  DFT-der2     -8        7        1
  DFT-cphf     -9        8        1
  LMP2-enrg     4        2        1
  LMP2-grad     2        1        1
  DFT-cphf2   -15        9        1
  PBF-dens      0        0        1
  plotting      0        0        1
  
   
  number of gridpoints: 
     atom        S1       O2       O3       N4       N5       H6       H7
  grid # 1      546      734      735      496      491      224      224
  grid # 2      546      734      735      496      491      225      225
  grid # 3       22     1364     1366      210      281     1214     1213
  grid # 4    22280    22280    22280    22280    22280    22280    22280
  grid # 5     2152     2152     2152     2152     2152     2152     2152
  grid # 6    21648    21648    21648    21648    21648    21648    21648
  grid # 7    65628    63040    63040    62394    62394    66806    66806
  grid # 8     3470     7568     7568     8972     8972     9848     9848
  grid # 9      802     1434     1434     3852     3852     2486     2486
   
  number of gridpoints: 
     atom        H8       H9    total
  grid # 1      225      225     3900
  grid # 2      226      226     3904
  grid # 3     1228     1228     8126
  grid # 4    22280    22280   200520
  grid # 5     2152     2152    19368
  grid # 6    21648    21648   194832
  grid # 7    66806    66806   583720
  grid # 8     9848     9848    75942
  grid # 9     2486     2486    21318
   
  Sorting grid blocks by size.
  Peak memory usage:    785 Mb
  
  end of program grid
   
 Time(grid)  user:        1.0  user+sys:        2.0  wallclock:        4.2
  
  start of program rwr
  
  Peak memory usage:    748 Mb
  
  end of program rwr
   
 Time(rwr)  user:        1.0  user+sys:        1.0  wallclock:        2.7
  
  start of program scf
  
 number of electrons..........         50
 number of alpha electrons....         25
 number of beta electrons.....         25
 number of orbitals, total....        209
 number of doubly-occ'd orbs..         25
 number of open shell orbs....          0
 number of occupied orbitals..         25
 number of virtual orbitals...        184
 number of hamiltonians.......          1
 number of shells.............          1
 SCF type: DFT=M06
  
       i  u  d  i  g                   
       t  p  i  c  r                                 RMS    maximum
       e  d  i  u  i                       energy  density   DIIS  
       r  t  s  t  d       total energy    change  change    error 
  
etot    1  N  N  4  M    -658.92960983480           4.1E-03  1.6E-01
etot    2  Y  Y  6  M    -660.05370000161  1.1E+00  2.4E-03  7.0E-02
etot    3  Y  Y  6  M    -660.40053606018  3.5E-01  7.4E-04  3.5E-02
etot    4  N  Y  1  U    -660.45720442120  5.7E-02  7.0E-04  1.7E-02
etot    5  Y  Y  6  M    -660.46643151982  9.2E-03  4.2E-04  7.8E-03
etot    6  N  Y  1  U    -660.46676717637  3.4E-04  1.3E-04  2.0E-03
etot    7  Y  Y  6  M    -660.46701325520  2.5E-04  1.7E-05  4.4E-04
etot    8  N  Y  1  U    -660.46700053195 -1.3E-05  7.5E-06  7.1E-05
etot    9  N  Y  1  U    -660.46700058618  5.4E-08  3.2E-06  4.2E-05
etot   10  N  N  1  U    -660.46700073076  1.4E-07  0.0E+00  0.0E+00
  
  
 Energy components, in hartrees:
   (A)  Nuclear repulsion............     282.68482713352
   (E)  Total one-electron terms.....   -1469.09812371602
   (F)    Electron-nuclear...........   -2126.32614477761
   (H)    Kinetic....................     657.22802106159
   (I)  Total two-electron terms.....     525.94629585174
   (J)    Coulomb....................     584.10917888032
   (K)    Exchange+Correlation.......     -58.16288302859
   (L)  Electronic energy............    -943.15182786428  (E+I)
   (M)  -V/T.........................       2.00492824342  (-(A+F+I)/H)
   (N)  Total energy.................    -660.46700073076  (A+L)
  
 SCFE: SCF energy: DFT(m06)      -660.46700073076 hartrees   iterations:  10
  
 
 HOMO energy:    -0.30942
 LUMO energy:    -0.05412
 
  Orbital energies (hartrees): 
   -89.31405   -19.22648   -19.22620   -14.43836   -14.43623    -8.27187
    -6.18981    -6.18943    -6.18821    -1.16620    -1.05490    -0.95032
    -0.92970    -0.67126    -0.57146    -0.56728    -0.54801    -0.52420
    -0.46851    -0.39175    -0.37689    -0.35543    -0.35326    -0.34233
    -0.30942    -0.05412    -0.03502    -0.02557    -0.00394     0.00241
     0.02188     0.02530     0.02941     0.04019     0.06247
 
  Peak memory usage:    855 Mb
  
  end of program scf
   
 Time(scf)  user:       35.0  user+sys:       37.0  wallclock:       44.8
  
  start of program cutabab2
  
  Peak memory usage:    553 Mb
  
  end of program cutabab2
   
 Time(cutabab2)  user:        1.0  user+sys:        1.0  wallclock:        1.5
  
  start of program der2a
  
  Peak memory usage:    600 Mb
  
  end of program der2a
   
 Time(der2a)  user:        0.0  user+sys:        0.0  wallclock:        0.9
  
  start of program der2b
  
  Peak memory usage:    963 Mb
  
  end of program der2b
   
 Time(der2b)  user:      303.0  user+sys:      315.0  wallclock:      319.3
  
  start of program der2nda
  
 
  Peak memory usage:    599 Mb
  
  end of program der2nda
   
 Time(der2nda)  user:        0.0  user+sys:        0.0  wallclock:        0.9
  
  start of program der2ndb
  
  Peak memory usage:    793 Mb
  
  end of program der2ndb
   
 Time(der2ndb)  user:      880.0  user+sys:      953.0  wallclock:      955.1
  
  start of program rwr
  
  Peak memory usage:    748 Mb
  
  end of program rwr
   
 Time(rwr)  user:        1.0  user+sys:        1.0  wallclock:        2.5
  
  start of program cphfa
  
       1  vectors produced in CPHF
  
     v    i  j  k  i  g
     e    t  c  c  c  r
     c    e  o  o  u  i
     t    r  r  r  t  d       RMS  
  
     1    1  0  0  6  M     1.6E-02
     1    2  0  0  6  M     9.5E-04
     1    3  0  0  6  M     3.6E-04
     1    4  0  0  6  M     1.2E-04
     1    5  0  0  6  M     3.6E-05
  
  
  Atomic Polar Tensors (au): Total
  =========================
  
  APT for atom S1      
  --------------------------------------
        2.1998       0.0009       0.0042
        0.0030       2.4774      -0.0635
        0.0037       0.0029       2.0645
  --------------------------------------
  
  APT for atom O2      
  --------------------------------------
       -1.0238      -0.0234      -0.3698
       -0.0315      -0.6449       0.0064
       -0.2285      -0.0013      -0.7498
  --------------------------------------
  
  APT for atom O3      
  --------------------------------------
       -1.0641       0.0220       0.3485
        0.0292      -0.6447       0.0100
        0.2076       0.0002      -0.7109
  --------------------------------------
  
  APT for atom N4      
  --------------------------------------
       -0.4403      -0.0151       0.0148
       -0.0090      -0.8761       0.2546
        0.0146       0.3864      -0.8405
  --------------------------------------
  
  APT for atom N5      
  --------------------------------------
       -0.3963       0.0088       0.0064
        0.0076      -1.0475      -0.1980
        0.0059      -0.2143      -0.5651
  --------------------------------------
  
  APT for atom H6      
  --------------------------------------
        0.1921       0.0388      -0.0605
       -0.0056       0.1296       0.0250
       -0.0586      -0.0161       0.2343
  --------------------------------------
  
  APT for atom H7      
  --------------------------------------
        0.1819      -0.0360       0.0556
        0.0046       0.1295       0.0264
        0.0543      -0.0183       0.2440
  --------------------------------------
  
  APT for atom H8      
  --------------------------------------
        0.1757       0.0811      -0.0058
        0.0462       0.2385      -0.0292
       -0.0311      -0.0672       0.1604
  --------------------------------------
  
  APT for atom H9      
  --------------------------------------
        0.1743      -0.0771       0.0065
       -0.0446       0.2379      -0.0322
        0.0321      -0.0719       0.1630
  --------------------------------------
  
  Peak memory usage:    860 Mb
  
  end of program cphfa
   
 Time(cphfa)  user:      273.0  user+sys:      280.0  wallclock:      282.9
  
  start of program der1a
  
  Peak memory usage:    830 Mb
  
  end of program der1a
   
 Time(der1a)  user:        0.0  user+sys:        0.0  wallclock:        1.9
  
  start of program rwr
  
  Peak memory usage:    748 Mb
  
  end of program rwr
   
 Time(rwr)  user:        0.0  user+sys:        0.0  wallclock:        2.2
  
  start of program der1b
  
   
  forces (hartrees/bohr) : total     
   
 atom  label           x              y              z
 ---- --------   -------------  -------------  -------------
    1 S1         -1.165110E-04   1.989370E-03   8.227672E-03
    2 O2         -1.563468E-02  -9.333025E-04  -8.794703E-03
    3 O3          1.620427E-02  -9.757849E-04  -7.871056E-03
    4 N4         -1.105960E-04  -2.133579E-03   1.614241E-03
    5 N5         -1.778317E-04   1.303237E-03   2.098372E-03
    6 H6         -1.829608E-03  -6.725763E-04   2.230747E-04
    7 H7          1.791340E-03  -6.340068E-04   4.000944E-04
    8 H8          1.616781E-03   8.160511E-04   1.041718E-04
    9 H9         -1.641395E-03   8.226790E-04   2.067016E-05
 -------------   -------------  -------------  -------------
     total        1.017750E-04  -4.179131E-04  -3.977463E-03
   
  Peak memory usage:    860 Mb
  
  end of program der1b
   
 Time(der1b)  user:       15.0  user+sys:       15.0  wallclock:       16.6
  
  start of program geopt
  
  geometry optimization step  1
  energy:            -660.46700073076 hartrees
  
  gradient maximum:        1.7840E-02 .  (  4.5000E-04 )
  gradient rms:            5.8021E-03 .  (  3.0000E-04 )
  displacement maximum:    4.2979E-02 .  (  1.8000E-03 )
  displacement rms:        1.6534E-02 .  (  1.2000E-03 )
  
  predicted energy change:  -6.1861E-04
  step size:     0.07577
  trust radius:  0.30000
  
  molecular structure not yet converged...
  
  center of mass moved by:
     x:    -5.8620E-04     y:    -1.4551E-03     z:    -6.1880E-03
  
  new geometry: 
                                   angstroms
  atom               x                 y                 z
  S1           -0.0103479289     -0.0169921057      0.0036012141 
  O2            1.2292965405      0.0754841496      0.7136801049 
  O3           -1.2965932603      0.0713519301      0.6259068767 
  N4            0.0301359816      1.1578783197     -1.1925837364 
  N5            0.0185792834     -1.4765844148     -0.7658890082 
  H6            0.8568299610      1.7291157664     -1.0583024628 
  H7           -0.8077408136      1.7239823367     -1.1204769780 
  H8           -0.8029496718     -1.6093145490     -1.3425915619 
  H9            0.8763801494     -1.6048903996     -1.2882380776 
   
  nuclear repulsion energy.......     284.487318224 hartrees
  -------------------------------------------------
 /  end of geometry optimization iteration   1   /
 -------------------------------------------------
   
  Peak memory usage:    449 Mb
  
  end of program geopt
   
 Time(geopt)  user:        0.0  user+sys:        0.0  wallclock:        0.4
  
  start of program onee
  
  smallest eigenvalue of S:    5.699E-05
  number of canonical orbitals.....          208
  Peak memory usage:    830 Mb
  
  end of program onee
   
 Time(onee)  user:        0.0  user+sys:        0.0  wallclock:        1.9
  
  start of program probe
  
  Peak memory usage:    770 Mb
  
  end of program probe
   
 Time(probe)  user:        0.0  user+sys:        0.0  wallclock:        1.7
  
  start of program grid
  
  
   grid     grid set  grid #  grid sym
  ------    --------  ------  --------
  coarse        0        0        1
  medium        2        1        1
  fine          0        0        1
  ultrafine     4        2        1
  charge       -1        3        1
  gradient      4        2        1
  density       0        0        1
  DFT-fine    -11        4        1
  DFT-med.    -10        5        1
  DFT-grad    -12        6        1
  DFT-der2     -8        7        1
  DFT-cphf     -9        8        1
  LMP2-enrg     4        2        1
  LMP2-grad     2        1        1
  DFT-cphf2   -15        9        1
  PBF-dens      0        0        1
  plotting      0        0        1
  
   
  number of gridpoints: 
     atom        S1       O2       O3       N4       N5       H6       H7
  grid # 1      540      733      733      500      494      223      223
  grid # 2      540      733      733      500      494      224      224
  grid # 3       21     1344     1345      219      286     1207     1207
  grid # 4    22280    22280    22280    22280    22280    22280    22280
  grid # 5     2152     2152     2152     2152     2152     2152     2152
  grid # 6    21648    21648    21648    21648    21648    21648    21648
  grid # 7    65628    63040    63040    62394    62394    66806    66806
  grid # 8     3470     7568     7568     8972     8972     9848     9848
  grid # 9      802     1434     1434     3852     3852     2486     2486
   
  number of gridpoints: 
     atom        H8       H9    total
  grid # 1      224      224     3894
  grid # 2      225      225     3898
  grid # 3     1224     1224     8077
  grid # 4    22280    22280   200520
  grid # 5     2152     2152    19368
  grid # 6    21648    21648   194832
  grid # 7    66806    66806   583720
  grid # 8     9848     9848    75942
  grid # 9     2486     2486    21318
   
  Sorting grid blocks by size.
  Peak memory usage:    785 Mb
  
  end of program grid
   
 Time(grid)  user:        1.0  user+sys:        2.0  wallclock:        4.2
  
  start of program rwr
  
  Peak memory usage:    748 Mb
  
  end of program rwr
   
 Time(rwr)  user:        1.0  user+sys:        1.0  wallclock:        4.4
  
  start of program scf
  
  
       i  u  d  i  g                   
       t  p  i  c  r                                 RMS    maximum
       e  d  i  u  i                       energy  density   DIIS  
       r  t  s  t  d       total energy    change  change    error 
  
etot    1  N  N  1  U    -660.46668135248           1.7E-04  2.2E-03
etot    2  Y  Y  6  M    -660.46712618250  4.4E-04  3.7E-05  1.2E-03
etot    3  N  Y  1  U    -660.46715124771  2.5E-05  1.5E-05  8.7E-04
etot    4  N  Y  1  U    -660.46718198624  3.1E-05  4.2E-06  2.0E-04
etot    5  N  N  1  U    -660.46718369405  1.7E-06  0.0E+00  0.0E+00
  
  
 Energy components, in hartrees:
   (A)  Nuclear repulsion............     284.48731822412
   (E)  Total one-electron terms.....   -1472.67042417092
   (F)    Electron-nuclear...........   -2130.03775088102
   (H)    Kinetic....................     657.36732671010
   (I)  Total two-electron terms.....     527.71592225275
   (J)    Coulomb....................     585.91312905785
   (K)    Exchange+Correlation.......     -58.19720680510
   (L)  Electronic energy............    -944.95450191817  (E+I)
   (M)  -V/T.........................       2.00471556291  (-(A+F+I)/H)
   (N)  Total energy.................    -660.46718369405  (A+L)
  
 SCFE: SCF energy: DFT(m06)      -660.46718369405 hartrees   iterations:   5
  
 
 HOMO energy:    -0.31076
 LUMO energy:    -0.05372
 
  Orbital energies (hartrees): 
   -89.31048   -19.22451   -19.22449   -14.43709   -14.43494    -8.26937
    -6.18719    -6.18682    -6.18571    -1.17343    -1.06023    -0.95221
    -0.93163    -0.66919    -0.57317    -0.56652    -0.54734    -0.52515
    -0.46890    -0.39510    -0.37940    -0.35769    -0.35400    -0.34393
    -0.31076    -0.05372    -0.03467    -0.02513    -0.00351     0.00225
     0.02242     0.02513     0.03303     0.04026     0.06368
 
  Peak memory usage:    855 Mb
  
  end of program scf
   
 Time(scf)  user:       22.0  user+sys:       23.0  wallclock:       24.6
  
  start of program der1a
  
  Peak memory usage:    830 Mb
  
  end of program der1a
   
 Time(der1a)  user:        0.0  user+sys:        0.0  wallclock:        2.5
  
  start of program rwr
  
  Peak memory usage:    748 Mb
  
  end of program rwr
   
 Time(rwr)  user:        0.0  user+sys:        0.0  wallclock:        4.3
  
  start of program der1b
  
   
  forces (hartrees/bohr) : total     
   
 atom  label           x              y              z
 ---- --------   -------------  -------------  -------------
    1 S1          8.669693E-05  -1.582669E-04  -1.118368E-03
    2 O2         -7.872200E-06   9.783919E-05  -4.065553E-04
    3 O3          6.249461E-06   1.252630E-04  -4.135275E-04
    4 N4          2.645960E-05  -1.427467E-04  -3.370705E-04
    5 N5          1.345209E-05   1.028085E-04  -4.084508E-04
    6 H6         -3.826502E-05  -5.883162E-05  -5.119429E-04
    7 H7          4.695666E-05  -5.606469E-05  -5.051458E-04
    8 H8         -1.269288E-05  -8.300007E-05  -3.684863E-04
    9 H9          3.515343E-05  -8.707091E-05  -3.510741E-04
 -------------   -------------  -------------  -------------
     total        1.561381E-04  -2.600703E-04  -4.420621E-03
   
  Peak memory usage:    860 Mb
  
  end of program der1b
   
 Time(der1b)  user:       15.0  user+sys:       15.0  wallclock:       16.4
  
  start of program geopt
  
  geometry optimization step  2
  energy:            -660.46718369405 hartrees
  
  energy change:          -1.8296E-04 .  (  5.0000E-05 )
  gradient maximum:        3.7806E-04 *  (  4.5000E-04 )
  gradient rms:            1.3658E-04 *  (  3.0000E-04 )
  displacement maximum:    6.1864E-03 .  (  1.8000E-03 )
  displacement rms:        1.7334E-03 .  (  1.2000E-03 )
  
  predicted energy change:  -1.3539E-06
  step size:     0.00794
  trust radius:  0.30000
  
  molecular structure not yet converged...
  
  center of mass moved by:
     x:     1.6320E-04     y:     8.4838E-04     z:    -2.2181E-03
  
  new geometry: 
                                   angstroms
  atom               x                 y                 z
  S1           -0.0102667674     -0.0172471084      0.0029126859 
  O2            1.2292553839      0.0752972551      0.7133119293 
  O3           -1.2963493666      0.0716332167      0.6256761594 
  N4            0.0299778274      1.1586673436     -1.1914338656 
  N5            0.0183705184     -1.4765613484     -0.7655268635 
  H6            0.8562991650      1.7300246308     -1.0555898517 
  H7           -0.8079118280      1.7245453466     -1.1174745094 
  H8           -0.8034785185     -1.6120078346     -1.3408286773 
  H9            0.8769165713     -1.6083608649     -1.2853768986 
   
  nuclear repulsion energy.......     284.525447280 hartrees
  -------------------------------------------------
 /  end of geometry optimization iteration   2   /
 -------------------------------------------------
   
  Peak memory usage:    449 Mb
  
  end of program geopt
   
 Time(geopt)  user:        0.0  user+sys:        0.0  wallclock:        0.3
  
  start of program onee
  
  smallest eigenvalue of S:    5.708E-05
  number of canonical orbitals.....          208
  Peak memory usage:    830 Mb
  
  end of program onee
   
 Time(onee)  user:        0.0  user+sys:        0.0  wallclock:        1.8
  
  start of program probe
  
  Peak memory usage:    770 Mb
  
  end of program probe
   
 Time(probe)  user:        0.0  user+sys:        0.0  wallclock:        1.7
  
  start of program grid
  
  
   grid     grid set  grid #  grid sym
  ------    --------  ------  --------
  coarse        0        0        1
  medium        2        1        1
  fine          0        0        1
  ultrafine     4        2        1
  charge       -1        3        1
  gradient      4        2        1
  density       0        0        1
  DFT-fine    -11        4        1
  DFT-med.    -10        5        1
  DFT-grad    -12        6        1
  DFT-der2     -8        7        1
  DFT-cphf     -9        8        1
  LMP2-enrg     4        2        1
  LMP2-grad     2        1        1
  DFT-cphf2   -15        9        1
  PBF-dens      0        0        1
  plotting      0        0        1
  
   
  number of gridpoints: 
     atom        S1       O2       O3       N4       N5       H6       H7
  grid # 1      540      733      733      500      494      223      223
  grid # 2      540      733      733      500      494      224      224
  grid # 3       21     1343     1344      219      285     1208     1206
  grid # 4    22280    22280    22280    22280    22280    22280    22280
  grid # 5     2152     2152     2152     2152     2152     2152     2152
  grid # 6    21648    21648    21648    21648    21648    21648    21648
  grid # 7    65628    63040    63040    62394    62394    66806    66806
  grid # 8     3470     7568     7568     8972     8972     9848     9848
  grid # 9      802     1434     1434     3852     3852     2486     2486
   
  number of gridpoints: 
     atom        H8       H9    total
  grid # 1      225      225     3896
  grid # 2      226      226     3900
  grid # 3     1226     1225     8077
  grid # 4    22280    22280   200520
  grid # 5     2152     2152    19368
  grid # 6    21648    21648   194832
  grid # 7    66806    66806   583720
  grid # 8     9848     9848    75942
  grid # 9     2486     2486    21318
   
  Sorting grid blocks by size.
  Peak memory usage:    785 Mb
  
  end of program grid
   
 Time(grid)  user:        1.0  user+sys:        3.0  wallclock:        5.7
  
  start of program rwr
  
  Peak memory usage:    748 Mb
  
  end of program rwr
   
 Time(rwr)  user:        1.0  user+sys:        1.0  wallclock:        4.5
  
  start of program scf
  
  
       i  u  d  i  g                   
       t  p  i  c  r                                 RMS    maximum
       e  d  i  u  i                       energy  density   DIIS  
       r  t  s  t  d       total energy    change  change    error 
  
etot    1  N  N  1  U    -660.46716766363           1.1E-05  2.4E-04
etot    2  N  Y  1  U    -660.46717197252  4.3E-06  2.9E-06  4.2E-05
etot    3  N  N  1  U    -660.46717206758  9.5E-08  0.0E+00  0.0E+00
  
  
 Energy components, in hartrees:
   (A)  Nuclear repulsion............     284.52544728023
   (E)  Total one-electron terms.....   -1472.74565522764
   (F)    Electron-nuclear...........   -2130.11360087672
   (H)    Kinetic....................     657.36794564908
   (I)  Total two-electron terms.....     527.75303587983
   (J)    Coulomb....................     585.95081168175
   (K)    Exchange+Correlation.......     -58.19777580192
   (L)  Electronic energy............    -944.99261934780  (E+I)
   (M)  -V/T.........................       2.00471459924  (-(A+F+I)/H)
   (N)  Total energy.................    -660.46717206758  (A+L)
  
 SCFE: SCF energy: DFT(m06)      -660.46717206758 hartrees   iterations:   3
  
 
 HOMO energy:    -0.31077
 LUMO energy:    -0.05370
 
  Orbital energies (hartrees): 
   -89.31054   -19.22415   -19.22399   -14.43754   -14.43522    -8.26941
    -6.18723    -6.18686    -6.18574    -1.17335    -1.05998    -0.95234
    -0.93194    -0.66935    -0.57332    -0.56680    -0.54759    -0.52506
    -0.46873    -0.39507    -0.37932    -0.35745    -0.35418    -0.34368
    -0.31077    -0.05370    -0.03469    -0.02512    -0.00352     0.00228
     0.02243     0.02515     0.03311     0.04031     0.06367
 
  Peak memory usage:    855 Mb
  
  end of program scf
   
 Time(scf)  user:       16.0  user+sys:       18.0  wallclock:       26.3
  
  start of program der1a
  
  Peak memory usage:    830 Mb
  
  end of program der1a
   
 Time(der1a)  user:        0.0  user+sys:        0.0  wallclock:        1.8
  
  start of program rwr
  
  Peak memory usage:    748 Mb
  
  end of program rwr
   
 Time(rwr)  user:        0.0  user+sys:        0.0  wallclock:        2.3
  
  start of program der1b
  
   
  forces (hartrees/bohr) : total     
   
 atom  label           x              y              z
 ---- --------   -------------  -------------  -------------
    1 S1          4.828057E-05   6.022133E-06  -4.069457E-04
    2 O2          9.863254E-06   3.224773E-05  -5.200705E-04
    3 O3         -4.769245E-06  -3.292216E-06  -5.243688E-04
    4 N4          9.197042E-06  -6.037207E-05  -6.105416E-04
    5 N5         -1.223945E-05  -1.112945E-04  -3.125350E-04
    6 H6          5.157314E-05  -2.520661E-05  -5.498155E-04
    7 H7         -5.366286E-08  -2.596206E-05  -5.504040E-04
    8 H8         -3.951698E-05  -5.344503E-05  -4.833890E-04
    9 H9          7.973113E-05  -5.215595E-05  -4.807609E-04
 -------------   -------------  -------------  -------------
     total        1.420658E-04  -2.934585E-04  -4.438831E-03
   
  Peak memory usage:    860 Mb
  
  end of program der1b
   
 Time(der1b)  user:       14.0  user+sys:       14.0  wallclock:       16.5
  
  start of program geopt
  
  geometry optimization step  3
  energy:            -660.46717206758 hartrees
  
  energy change:           1.1626E-05 *  (  5.0000E-05 )
  gradient maximum:        9.9798E-05 *  (  4.5000E-04 )
  gradient rms:            4.9587E-05 #  (  3.0000E-04 )
  displacement maximum:    1.6733E-03 *  (  1.8000E-03 )
  displacement rms:        5.6308E-04 *  (  1.2000E-03 )
  
  predicted energy change:  -1.1445E-07
  step size:     0.00258
  trust radius:  0.30000
  
  ********************************************************
  **           Geometry optimization complete           **
  ********************************************************
  
  Checking the geometry optimization convergence pattern ...
  
  WARNING:
  The energy on the last optimization iteration,
     -660.467172067577
  is higher than the energy on one of the previous iterations,
     -660.467183694054
  The difference between these two energies is 0.007 kcal/mole.
  This situation is symptomatic of potential problems with the
  initial and/or the converged structures.
  
  best                    worst
  ==0=====1=====2=====3=====4==
                      ^        
  
  Convergence category 3: convergence to a non-optimal structure.
  The difference between the final and the minimal
  energies is less than 0.010 kcal/mole.
  Peudospectral approximation:
  Geometry optimization was OK.
  
  center of mass moved by:
     x:     0.0000E+00     y:     0.0000E+00     z:     0.0000E+00
  
  final geometry: 
                                   angstroms
  atom               x                 y                 z
  S1           -0.0102667674     -0.0172471084      0.0029126859 
  O2            1.2292553839      0.0752972551      0.7133119293 
  O3           -1.2963493666      0.0716332167      0.6256761594 
  N4            0.0299778274      1.1586673436     -1.1914338656 
  N5            0.0183705184     -1.4765613484     -0.7655268635 
  H6            0.8562991650      1.7300246308     -1.0555898517 
  H7           -0.8079118280      1.7245453466     -1.1174745094 
  H8           -0.8034785185     -1.6120078346     -1.3408286773 
  H9            0.8769165713     -1.6083608649     -1.2853768986 
   
  principal moments of inertia:
        amu*angstrom^2:      100.81686      107.82543      114.80206
                g*cm^2: 1.67410321E-38 1.79048311E-38 1.90633278E-38
   
  rotational constants:
               cm^(-1):      0.16721041      0.15634187      0.14684083
                   GHz:      5.01284196      4.68701143      4.40217725
   
  nuclear repulsion energy.......     284.525447280 hartrees
  -------------------------------------------------
 /  end of geometry optimization iteration   3   /
 -------------------------------------------------
   
  Peak memory usage:    449 Mb
  
  end of program geopt
   
 Time(geopt)  user:        0.0  user+sys:        0.0  wallclock:        1.1
  
  start of program ch
  
  Moments from quantum mechanical wavefunction:
  Dipole Moments  (Debye)
     X=     0.1315     Y=     0.6698     Z=    -3.9630  Tot=     4.0213
  
  gridpoints used for charge fit         7819
    out of a possible maximum of         8077
  
   Electrostatic potential fitting constrained to reproduce
     total charge:                yes
     dipole moment:               yes
     traceless quadrupole moment: no 
     traceless octapole moment:   no 
  
  Atomic charges from electrostatic potential: 
   
 Atom       S1           O2           O3           N4           N5      
 Charge    1.01975     -0.46156     -0.46195     -0.83239     -0.73549
   
 Atom       H6           H7           H8           H9      
 Charge    0.37051      0.37046      0.36531      0.36536
  
  sum of atomic charges:     0.000000
   
 RMS Error   1.37E-03 hartrees
 
  
  Moments from electrostatic potential charges:
  Dipole Moments  (Debye)
     X=     0.1315     Y=     0.6698     Z=    -3.9630  Tot=     4.0213
  
  Peak memory usage:    757 Mb
  
  end of program ch
   
 Time(ch)  user:        0.0  user+sys:        0.0  wallclock:        2.2
  
  start of program cutabab2
  
  Peak memory usage:    553 Mb
  
  end of program cutabab2
   
 Time(cutabab2)  user:        1.0  user+sys:        1.0  wallclock:        1.2
  
  start of program der2a
  
  Peak memory usage:    600 Mb
  
  end of program der2a
   
 Time(der2a)  user:        0.0  user+sys:        0.0  wallclock:        0.9
  
  start of program der2b
  
  Peak memory usage:    963 Mb
  
  end of program der2b
   
 Time(der2b)  user:      310.0  user+sys:      320.0  wallclock:      321.4
  
  start of program der2nda
  
 
  Peak memory usage:    599 Mb
  
  end of program der2nda
   
 Time(der2nda)  user:        0.0  user+sys:        0.0  wallclock:        0.9
  
  start of program der2ndb
  
  Peak memory usage:    793 Mb
  
  end of program der2ndb
   
 Time(der2ndb)  user:      956.0  user+sys:     1030.0  wallclock:     1031.2
  
  start of program rwr
  
  Peak memory usage:    748 Mb
  
  end of program rwr
   
 Time(rwr)  user:        1.0  user+sys:        1.0  wallclock:        2.5
  
  start of program cphfa
  
       1  vectors produced in CPHF
  
     v    i  j  k  i  g
     e    t  c  c  c  r
     c    e  o  o  u  i
     t    r  r  r  t  d       RMS  
  
     1    1  0  0  6  M     1.6E-02
     1    2  0  0  6  M     9.5E-04
     1    3  0  0  6  M     3.5E-04
     1    4  0  0  6  M     1.2E-04
     1    5  0  0  6  M     3.8E-05
  
  
  Atomic Polar Tensors (au): Total
  =========================
  
  APT for atom S1      
  --------------------------------------
        2.2154       0.0002       0.0050
        0.0022       2.4963      -0.0625
        0.0046       0.0007       2.0812
  --------------------------------------
  
  APT for atom O2      
  --------------------------------------
       -1.0299      -0.0254      -0.3724
       -0.0340      -0.6525       0.0047
       -0.2354      -0.0017      -0.7609
  --------------------------------------
  
  APT for atom O3      
  --------------------------------------
       -1.0713       0.0241       0.3510
        0.0321      -0.6525       0.0082
        0.2140       0.0004      -0.7205
  --------------------------------------
  
  APT for atom N4      
  --------------------------------------
       -0.4398      -0.0136       0.0138
       -0.0086      -0.8786       0.2617
        0.0138       0.3922      -0.8407
  --------------------------------------
  
  APT for atom N5      
  --------------------------------------
       -0.3918       0.0084       0.0058
        0.0080      -1.0504      -0.2033
        0.0058      -0.2113      -0.5551
  --------------------------------------
  
  APT for atom H6      
  --------------------------------------
        0.1906       0.0373      -0.0591
       -0.0070       0.1300       0.0224
       -0.0608      -0.0213       0.2344
  --------------------------------------
  
  APT for atom H7      
  --------------------------------------
        0.1819      -0.0351       0.0551
        0.0058       0.1299       0.0233
        0.0569      -0.0235       0.2430
  --------------------------------------
  
  APT for atom H8      
  --------------------------------------
        0.1733       0.0800      -0.0090
        0.0469       0.2390      -0.0260
       -0.0341      -0.0651       0.1577
  --------------------------------------
  
  APT for atom H9      
  --------------------------------------
        0.1709      -0.0758       0.0099
       -0.0454       0.2386      -0.0290
        0.0352      -0.0701       0.1608
  --------------------------------------
  
  Peak memory usage:    860 Mb
  
  end of program cphfa
   
 Time(cphfa)  user:      278.0  user+sys:      283.0  wallclock:      285.2
  
  start of program freq
  
   
  harmonic frequencies in cm**-1, reduced masses in amu,
  force constants in mDyne/A, and
  normal modes in cartesian coordinates:
  IR intensities in km/mol
  
  frequencies       129.84   285.96   312.48   407.43   443.90   502.65
  intensities        54.23     0.03    21.24     1.49    10.51    24.18
  reduc. mass         0.38     0.31     2.29     2.28     2.32     3.54
  force const         0.00     0.01     0.13     0.22     0.27     0.53
    S1       X     0.00075 -0.01705 -0.00097  0.04528 -0.05924 -0.00260
    S1       Y     0.00001 -0.00004 -0.00040  0.00005 -0.00010  0.01276
    S1       Z    -0.00004 -0.00056  0.02835  0.00154 -0.00205  0.07495
    O2       X     0.00047  0.00787 -0.03559  0.00924 -0.02029  0.09844
    O2       Y    -0.03595 -0.04413  0.01281 -0.09193 -0.07295 -0.01202
    O2       Z     0.01071 -0.03654  0.08029  0.07285 -0.06462 -0.08142
    O3       X     0.00081  0.00521  0.02989  0.01393 -0.02503 -0.09251
    O3       Y     0.03586  0.04409  0.01345  0.09198  0.07303 -0.01235
    O3       Z    -0.01138  0.03706  0.08239 -0.07223  0.06285 -0.08808
    N4       X    -0.08786  0.00388  0.00302 -0.11818  0.02392 -0.00131
    N4       Y     0.00022  0.00001 -0.10596  0.00000  0.00008 -0.08020
    N4       Z    -0.00275  0.00004 -0.09473 -0.00405  0.00100  0.04078
    N5       X     0.03207  0.00854  0.00399  0.03336  0.14061 -0.00030
    N5       Y    -0.00027  0.00014  0.05582 -0.00004  0.00005  0.06287
    N5       Z     0.00162  0.00031 -0.10898  0.00124  0.00491  0.00510
    H6       X     0.18404 -0.19968 -0.00308 -0.25064  0.07110  0.01773
    H6       Y    -0.29999  0.23438 -0.08312  0.20290 -0.07783 -0.08000
    H6       Z    -0.39724  0.25483 -0.13937 -0.05859  0.04719 -0.11404
    H7       X     0.15187 -0.17846  0.01364 -0.25286  0.07381 -0.00949
    H7       Y     0.30180 -0.23535 -0.08151 -0.20376  0.07822 -0.08108
    H7       Z     0.41065 -0.26819 -0.13497  0.04242 -0.04210 -0.11498
    H8       X     0.20662  0.28320  0.02577 -0.06614  0.07918  0.01302
    H8       Y     0.11149  0.13814  0.22840 -0.05379 -0.30701  0.19183
    H8       Z    -0.27414 -0.42283 -0.18828  0.15569  0.16728 -0.04752
    H9       X     0.18847  0.25542 -0.01239 -0.05594  0.08863 -0.01067
    H9       Y    -0.11148 -0.13742  0.22881  0.05288  0.30681  0.19217
    H9       Z     0.28819  0.44104 -0.18823 -0.15925 -0.16131 -0.04837
  
  frequencies       541.42   654.88   695.66   832.76   907.44  1075.35
  intensities        12.32   191.57   254.26    32.71   149.88     0.19
  reduc. mass         2.83     2.26     2.23     2.05     5.87     0.30
  force const         0.49     0.57     0.63     0.84     2.85     0.21
    S1       X     0.00001 -0.00027 -0.00142  0.00238  0.00027 -0.00249
    S1       Y    -0.06624  0.03376 -0.04502  0.00970 -0.11229  0.00005
    S1       Z     0.00351  0.00632  0.04148 -0.06939 -0.00220 -0.00004
    O2       X    -0.00041  0.00678  0.03696 -0.04965 -0.02349 -0.00217
    O2       Y     0.11598 -0.02724  0.00531 -0.01573  0.01706 -0.01560
    O2       Z    -0.01899  0.00132 -0.00764 -0.01603 -0.00885 -0.00191
    O3       X     0.00145 -0.00679 -0.03644  0.05065  0.02405 -0.00267
    O3       Y     0.11585 -0.02729  0.00507 -0.01559  0.01720  0.01559
    O3       Z    -0.01895  0.00088 -0.01009 -0.01250 -0.00730  0.00189
    N4       X    -0.00319  0.00144  0.00557 -0.00157  0.00000 -0.05776
    N4       Y    -0.02924  0.06987  0.03465 -0.09585  0.09158 -0.00025
    N4       Z     0.09319 -0.04215 -0.15215  0.05112 -0.01033 -0.00213
    N5       X     0.00217 -0.00198 -0.00030 -0.00348 -0.00254  0.07294
    N5       Y    -0.08945 -0.14987  0.03717  0.08195  0.08774  0.00016
    N5       Z    -0.06167  0.06660  0.00678  0.10009  0.07062  0.00234
    H6       X    -0.00806  0.00399 -0.11533 -0.04039  0.05352  0.06628
    H6       Y    -0.04307  0.06715  0.11192 -0.08601  0.05864 -0.25287
    H6       Z     0.17197 -0.02610  0.45426  0.29270 -0.29028  0.34273
    H7       X    -0.00409 -0.00283  0.08132  0.01946 -0.03221  0.08989
    H7       Y    -0.04296  0.06644  0.11356 -0.08529  0.05873  0.25331
    H7       Z     0.17122 -0.02739  0.46187  0.29435 -0.29458 -0.33709
    H8       X     0.02409  0.10381 -0.01363  0.03622  0.00057 -0.11172
    H8       Y     0.07882  0.38660  0.01985  0.27695  0.20465  0.46029
    H8       Z    -0.14483 -0.25760  0.03417 -0.01555  0.03678  0.14680
    H9       X    -0.01462 -0.08858  0.01117 -0.03645 -0.00400 -0.09972
    H9       Y     0.07846  0.38588  0.02035  0.27667  0.20481 -0.46093
    H9       Z    -0.14548 -0.26396  0.03470 -0.01813  0.03647 -0.15372
  
  frequencies      1123.97  1212.39  1457.04  1563.98  1570.86  3497.71
  intensities         2.79   172.37   286.32    48.30    39.20    35.13
  reduc. mass         0.39     6.30     8.99     0.54     0.51     0.48
  force const         0.29     5.46    11.25     0.77     0.75     3.47
    S1       X     0.00494 -0.00308  0.12175  0.00004 -0.00046  0.00002
    S1       Y     0.00013  0.01541  0.00021 -0.00857  0.00263 -0.00047
    S1       Z     0.00016  0.08760  0.00425  0.00065  0.01210 -0.00052
    O2       X     0.04400 -0.12556 -0.10730  0.00636 -0.00677 -0.00035
    O2       Y     0.00378 -0.01023 -0.00702  0.00249 -0.00173  0.00041
    O2       Z     0.04406 -0.08315 -0.05698  0.00232 -0.00448 -0.00041
    O3       X     0.04678  0.13112 -0.11097 -0.00658  0.00709  0.00038
    O3       Y    -0.00374 -0.00986  0.00668  0.00246 -0.00170  0.00041
    O3       Z    -0.04083 -0.07430  0.04939  0.00190 -0.00400 -0.00039
    N4       X    -0.07355  0.00025 -0.01800 -0.00003  0.00087  0.00044
    N4       Y    -0.00022 -0.00208 -0.00003 -0.00104  0.07163 -0.05333
    N4       Z    -0.00269 -0.00834 -0.00066  0.00063 -0.02964 -0.00509
    N5       X    -0.06420  0.00044 -0.01763 -0.00210  0.00007  0.00012
    N5       Y    -0.00016 -0.00987 -0.00006  0.05717  0.00606 -0.00103
    N5       Z    -0.00219 -0.01171 -0.00063  0.05948 -0.00160 -0.00384
    H6       X     0.07137 -0.03529  0.02118 -0.00951  0.38060  0.57344
    H6       Y    -0.28735  0.04819 -0.07055  0.01459 -0.54004  0.37214
    H6       Z     0.35867  0.01066  0.08096 -0.00662  0.11635  0.07036
    H7       X     0.09571  0.03432  0.02649  0.00990 -0.38472 -0.58060
    H7       Y     0.28762  0.04902  0.07045  0.01473 -0.54278  0.36910
    H7       Z    -0.35233  0.01256 -0.07927 -0.00604  0.08798  0.02761
    H8       X     0.07930  0.01114  0.02579  0.39543  0.01070  0.04423
    H8       Y    -0.36416 -0.05034 -0.08672 -0.30713 -0.01263  0.00808
    H8       Z    -0.11345 -0.01188 -0.03457 -0.44245 -0.00950  0.02918
    H9       X     0.07013 -0.01024  0.02334 -0.36407 -0.01000 -0.04600
    H9       Y     0.36422 -0.05074  0.08692 -0.30872 -0.01295  0.00787
    H9       Z     0.11841 -0.01278  0.03653 -0.46750 -0.01020  0.02614
  
  frequencies      3506.24  3599.74  3617.79
  intensities        27.62    49.62    40.53
  reduc. mass         0.48     0.53     0.53
  force const         3.48     4.02     4.07
    S1       X     0.00002  0.00041  0.00063
    S1       Y     0.00055  0.00000  0.00000
    S1       Z    -0.00060  0.00002  0.00002
    O2       X     0.00032 -0.00022 -0.00037
    O2       Y     0.00006 -0.00006 -0.00005
    O2       Z     0.00043 -0.00015 -0.00023
    O3       X    -0.00034 -0.00023 -0.00039
    O3       Y     0.00006  0.00006  0.00005
    O3       Z     0.00041  0.00014  0.00021
    N4       X    -0.00003  0.07875  0.00010
    N4       Y     0.00447  0.00031  0.00000
    N4       Z     0.00041  0.00293  0.00000
    N5       X     0.00163  0.00000  0.07940
    N5       Y    -0.01721  0.00000  0.00016
    N5       Z    -0.05024  0.00000  0.00258
    H6       X    -0.04529 -0.54751 -0.00068
    H6       Y    -0.02749 -0.38332 -0.00034
    H6       Z    -0.00528 -0.08480  0.00015
    H7       X     0.04580 -0.55367 -0.00069
    H7       Y    -0.02724  0.37893  0.00036
    H7       Z    -0.00190  0.04378 -0.00020
    H8       X     0.56952  0.00062 -0.54289
    H8       Y     0.10749  0.00023 -0.09684
    H8       Z     0.37194  0.00049 -0.38395
    H9       X    -0.59235  0.00068 -0.56838
    H9       Y     0.10481 -0.00023  0.09458
    H9       Z     0.33304 -0.00047  0.34786
  
  Number of imaginary frequencies:   0
   
  Writing vibrational animation data to cs.vib
  Writing vibrational spectrum data to cs_vib.spm
  
  Thermochemical properties at    1.0000 atm
  
  rotational symmetry number:  1

  rotational temperatures (K):      0.240578      0.224941      0.211271
   
  vibrational temperatures:
       mode:      1        2        3        4        5        6
  temp. (K):   186.82   411.43   449.59   586.20   638.67   723.21
   
       mode:      7        8        9       10       11       12
  temp. (K):   778.98   942.23  1000.90  1198.15  1305.61  1547.18
   
       mode:     13       14       15       16       17       18
  temp. (K):  1617.14  1744.35  2096.35  2250.22  2260.12  5032.42
   
       mode:     19       20       21
  temp. (K):  5044.70  5179.22  5205.18
   
   
  Thermodynamic properties calculated assuming an ideal gas

  In the table below, the units for temperature
  are kelvins, the units for U, H, and G are
  kcal/mol and the units for Cv and S are cal/(mol K)

  The zero point energy (ZPE):     39.942 kcal/mol
  is not included in U, H, or G in the table below


  T =   298.15 K
   
              U         Cv          S          H          G        ln(Q)
          ---------  ---------  ---------  ---------  ---------  ---------
  trans.      0.889      2.981     39.596      1.481    -10.324   17.42564
    rot.      0.889      2.981     25.544      0.889     -6.727   11.35438
    vib.      1.856     14.312      9.949      1.856     -1.110    1.87331
   elec.      0.000      0.000      0.000      0.000      0.000    0.00000
   total      3.634     20.274     75.090      4.226    -18.162   30.65332
   
  Total internal energy, Utot (SCFE + ZPE + U):    -660.397730 hartrees
              Total enthalpy, Htot (Utot + pV):    -660.396786 hartrees
    Total Gibbs free energy, Gtot (Htot - T*S):    -660.432464 hartrees
   
  Peak memory usage:    449 Mb
  
  end of program freq
   
 Time(freq)  user:        0.0  user+sys:        0.0  wallclock:        0.6
  
  start of program post
  
  Peak memory usage:    488 Mb
  
  end of program post
   
 Time(post)  user:        0.0  user+sys:        0.0  wallclock:        1.2

 *********************************** NBO 6.0 ***********************************
             N A T U R A L   A T O M I C   O R B I T A L   A N D
          N A T U R A L   B O N D   O R B I T A L   A N A L Y S I S
 ************************* Schrodinger,  Inc. (100193) *************************
  (c) Copyright 1996-2013 Board of Regents of the University of Wisconsin System
      on behalf of the Theoretical Chemistry Institute.  All rights reserved.

          Cite this program as:

          NBO 6.0.  E. D. Glendening, J. K. Badenhoop, A. E. Reed,
          J. E. Carpenter, J. A. Bohmann, C. M. Morales, C. R. Landis,
          and F. Weinhold (Theoretical Chemistry Institute, University
          of Wisconsin, Madison, WI, 2013); http://nbo6.chem.wisc.edu/

       /NRT    / : Natural Resonance Theory Analysis
       /PRINT  / : Print level set to 3

 Filename set to FILE

 Job title:  cs:  Input generated by Jaguar v8.1


 Atom distance matrix: (Angstroms)

     Atom    1       2       3       4       5       6       7       8       9
     ---- ------  ------  ------  ------  ------  ------  ------  ------  ------
   1.  S  0.0000  1.4317  1.4317  1.6766  1.6495  2.2191  2.2193  2.2312  2.2312
   2.  O  1.4317  0.0000  2.5271  2.4980  2.4620  2.4508  3.1972  3.3464  2.6370
   3.  O  1.4317  2.5271  0.0000  2.4985  2.4619  3.1954  2.4514  2.6353  3.3463
   4.  N  1.6766  2.4980  2.4985  0.0000  2.6694  1.0138  1.0138  2.8972  2.8953
   5.  N  1.6495  2.4620  2.4619  2.6694  0.0000  3.3269  3.3247  1.0123  1.0123
   6.  H  2.2191  2.4508  3.1954  1.0138  3.3269  0.0000  1.6654  3.7424  3.3463
   7.  H  2.2193  3.1972  2.4514  1.0138  3.3247  1.6654  0.0000  3.3440  3.7383
   8.  H  2.2312  3.3464  2.6353  2.8972  1.0123  3.7424  3.3440  0.0000  1.6813
   9.  H  2.2312  2.6370  3.3463  2.8953  1.0123  3.3463  3.7383  1.6813  0.0000


 NATURAL POPULATIONS:  Natural atomic orbital occupancies

  NAO Atom No lang   Type(AO)    Occupancy      Energy
 ---------------------------------------------------------
   1    S  1  s      Cor( 1s)     2.00000     -87.95728
   2    S  1  s      Cor( 2s)     1.99956      -9.38894
   3    S  1  s      Val( 3s)     1.02093      -0.55439
   4    S  1  s      Ryd( 4s)     0.00377       1.08678
   5    S  1  s      Ryd( 5s)     0.00008       2.15862
   6    S  1  s      Ryd( 6s)     0.00003       3.91816
   7    S  1  s      Ryd( 7s)     0.00001       3.11743
   8    S  1  s      Ryd( 8s)     0.00000       2.04661
   9    S  1  s      Ryd( 9s)     0.00000       5.62581
  10    S  1  px     Cor( 2p)     1.99984      -6.16925
  11    S  1  px     Val( 3p)     0.72414      -0.13297
  12    S  1  px     Ryd( 4p)     0.01463       1.23810
  13    S  1  px     Ryd( 5p)     0.00005       2.72488
  14    S  1  px     Ryd( 6p)     0.00003       0.68522
  15    S  1  py     Cor( 2p)     1.99994      -6.17526
  16    S  1  py     Val( 3p)     0.84430      -0.19729
  17    S  1  py     Ryd( 4p)     0.00497       1.27651
  18    S  1  py     Ryd( 5p)     0.00015       1.05894
  19    S  1  py     Ryd( 6p)     0.00002       0.89641
  20    S  1  pz     Cor( 2p)     1.99993      -6.17440
  21    S  1  pz     Val( 3p)     0.81475      -0.19234
  22    S  1  pz     Ryd( 4p)     0.00770       1.19887
  23    S  1  pz     Ryd( 5p)     0.00013       1.96965
  24    S  1  pz     Ryd( 6p)     0.00004       1.04683
  25    S  1  dxy    Ryd( 3d)     0.03930       0.86848
  26    S  1  dxy    Ryd( 4d)     0.00060       0.75829
  27    S  1  dxy    Ryd( 5d)     0.00003       2.31124
  28    S  1  dxz    Ryd( 3d)     0.03253       1.08098
  29    S  1  dxz    Ryd( 5d)     0.00035       0.87816
  30    S  1  dxz    Ryd( 4d)     0.00038       1.91946
  31    S  1  dyz    Ryd( 3d)     0.03437       0.97559
  32    S  1  dyz    Ryd( 4d)     0.00025       0.52223
  33    S  1  dyz    Ryd( 5d)     0.00004       1.91547
  34    S  1  dx2y2  Ryd( 3d)     0.03674       1.09930
  35    S  1  dx2y2  Ryd( 4d)     0.00032       0.96033
  36    S  1  dx2y2  Ryd( 5d)     0.00028       1.85911
  37    S  1  dz2    Ryd( 3d)     0.03351       0.85169
  38    S  1  dz2    Ryd( 4d)     0.00019       0.68699
  39    S  1  dz2    Ryd( 5d)     0.00018       2.08907

  40    O  2  s      Cor( 1s)     1.99984     -18.97696
  41    O  2  s      Val( 2s)     1.81850      -1.04122
  42    O  2  s      Ryd( 3s)     0.00071       2.88149
  43    O  2  s      Ryd( 4s)     0.00011       5.89876
  44    O  2  s      Ryd( 5s)     0.00006       4.53008
  45    O  2  s      Ryd( 6s)     0.00002       3.15420
  46    O  2  s      Ryd( 7s)     0.00000       4.07395
  47    O  2  s      Ryd( 8s)     0.00000      14.86435
  48    O  2  px     Val( 2p)     1.56245      -0.35158
  49    O  2  px     Ryd( 3p)     0.00065       0.88372
  50    O  2  px     Ryd( 4p)     0.00022       0.74232
  51    O  2  px     Ryd( 5p)     0.00009       4.25754
  52    O  2  py     Val( 2p)     1.80168      -0.31734
  53    O  2  py     Ryd( 3p)     0.00109       0.75085
  54    O  2  py     Ryd( 4p)     0.00006       0.59456
  55    O  2  py     Ryd( 5p)     0.00000       3.98204
  56    O  2  pz     Val( 2p)     1.70542      -0.32626
  57    O  2  pz     Ryd( 3p)     0.00070       0.72590
  58    O  2  pz     Ryd( 4p)     0.00009       0.71020
  59    O  2  pz     Ryd( 5p)     0.00003       4.05518
  60    O  2  dxy    Ryd( 3d)     0.00858       1.39691
  61    O  2  dxy    Ryd( 4d)     0.00001       1.51840
  62    O  2  dxy    Ryd( 5d)     0.00001       6.67711
  63    O  2  dxz    Ryd( 3d)     0.01062       1.54374
  64    O  2  dxz    Ryd( 4d)     0.00011       1.96003
  65    O  2  dxz    Ryd( 5d)     0.00001       6.74101
  66    O  2  dyz    Ryd( 3d)     0.00354       1.27620
  67    O  2  dyz    Ryd( 4d)     0.00001       1.55877
  68    O  2  dyz    Ryd( 5d)     0.00001       6.72412
  69    O  2  dx2y2  Ryd( 3d)     0.00765       1.44086
  70    O  2  dx2y2  Ryd( 4d)     0.00007       1.77370
  71    O  2  dx2y2  Ryd( 5d)     0.00001       6.73811
  72    O  2  dz2    Ryd( 3d)     0.00827       1.33435
  73    O  2  dz2    Ryd( 4d)     0.00003       1.51759
  74    O  2  dz2    Ryd( 5d)     0.00001       6.67144

  75    O  3  s      Cor( 1s)     1.99984     -18.97680
  76    O  3  s      Val( 2s)     1.81852      -1.04114
  77    O  3  s      Ryd( 3s)     0.00071       2.87700
  78    O  3  s      Ryd( 4s)     0.00011       5.91408
  79    O  3  s      Ryd( 5s)     0.00006       4.51706
  80    O  3  s      Ryd( 6s)     0.00002       3.15350
  81    O  3  s      Ryd( 7s)     0.00000       4.08024
  82    O  3  s      Ryd( 8s)     0.00000      14.85954
  83    O  3  px     Val( 2p)     1.54631      -0.35412
  84    O  3  px     Ryd( 3p)     0.00063       0.87839
  85    O  3  px     Ryd( 4p)     0.00023       0.75360
  86    O  3  px     Ryd( 5p)     0.00010       4.28533
  87    O  3  py     Val( 2p)     1.80179      -0.31726
  88    O  3  py     Ryd( 3p)     0.00109       0.75068
  89    O  3  py     Ryd( 4p)     0.00006       0.59432
  90    O  3  py     Ryd( 5p)     0.00000       3.98227
  91    O  3  pz     Val( 2p)     1.72159      -0.32359
  92    O  3  pz     Ryd( 3p)     0.00071       0.73130
  93    O  3  pz     Ryd( 4p)     0.00008       0.69923
  94    O  3  pz     Ryd( 5p)     0.00002       4.02806
  95    O  3  dxy    Ryd( 3d)     0.00927       1.41294
  96    O  3  dxy    Ryd( 5d)     0.00001       1.51659
  97    O  3  dxy    Ryd( 4d)     0.00001       6.68287
  98    O  3  dxz    Ryd( 3d)     0.01069       1.53436
  99    O  3  dxz    Ryd( 4d)     0.00009       1.88272
 100    O  3  dxz    Ryd( 5d)     0.00001       6.73313
 101    O  3  dyz    Ryd( 3d)     0.00284       1.25989
 102    O  3  dyz    Ryd( 4d)     0.00001       1.55993
 103    O  3  dyz    Ryd( 5d)     0.00001       6.71852
 104    O  3  dx2y2  Ryd( 3d)     0.00829       1.46459
 105    O  3  dx2y2  Ryd( 4d)     0.00007       1.81749
 106    O  3  dx2y2  Ryd( 5d)     0.00001       6.74472
 107    O  3  dz2    Ryd( 3d)     0.00756       1.32010
 108    O  3  dz2    Ryd( 4d)     0.00004       1.55176
 109    O  3  dz2    Ryd( 5d)     0.00001       6.67312

 110    N  4  s      Cor( 1s)     1.99961     -14.27569
 111    N  4  s      Val( 2s)     1.52904      -0.72061
 112    N  4  s      Ryd( 3s)     0.00133       1.70188
 113    N  4  s      Ryd( 4s)     0.00014       1.96042
 114    N  4  s      Ryd( 5s)     0.00003       3.10427
 115    N  4  s      Ryd( 6s)     0.00001       3.02670
 116    N  4  s      Ryd( 7s)     0.00000       6.73983
 117    N  4  s      Ryd( 8s)     0.00000      10.88809
 118    N  4  px     Val( 2p)     1.39360      -0.26313
 119    N  4  px     Ryd( 3p)     0.00217       0.86429
 120    N  4  px     Ryd( 4p)     0.00004       2.40123
 121    N  4  px     Ryd( 5p)     0.00001       1.85797
 122    N  4  py     Val( 2p)     1.41947      -0.28968
 123    N  4  py     Ryd( 3p)     0.00132       0.85550
 124    N  4  py     Ryd( 4p)     0.00003       2.48180
 125    N  4  py     Ryd( 5p)     0.00003       1.68740
 126    N  4  pz     Val( 2p)     1.69914      -0.31523
 127    N  4  pz     Ryd( 3p)     0.00185       0.75933
 128    N  4  pz     Ryd( 4p)     0.00017       2.23866
 129    N  4  pz     Ryd( 5p)     0.00004       1.62020
 130    N  4  dxy    Ryd( 3d)     0.00364       1.46207
 131    N  4  dxy    Ryd( 4d)     0.00006       1.49747
 132    N  4  dxy    Ryd( 5d)     0.00002       5.13138
 133    N  4  dxz    Ryd( 3d)     0.00412       1.14351
 134    N  4  dxz    Ryd( 4d)     0.00003       1.18413
 135    N  4  dxz    Ryd( 5d)     0.00002       4.82031
 136    N  4  dyz    Ryd( 3d)     0.00677       1.35156
 137    N  4  dyz    Ryd( 4d)     0.00016       1.06906
 138    N  4  dyz    Ryd( 5d)     0.00002       4.87368
 139    N  4  dx2y2  Ryd( 3d)     0.00111       1.17928
 140    N  4  dx2y2  Ryd( 4d)     0.00004       1.29352
 141    N  4  dx2y2  Ryd( 5d)     0.00001       4.87522
 142    N  4  dz2    Ryd( 3d)     0.00633       1.24558
 143    N  4  dz2    Ryd( 4d)     0.00013       1.10814
 144    N  4  dz2    Ryd( 5d)     0.00001       4.98564

 145    N  5  s      Cor( 1s)     1.99961     -14.27824
 146    N  5  s      Val( 2s)     1.51174      -0.71687
 147    N  5  s      Ryd( 3s)     0.00153       1.54124
 148    N  5  s      Ryd( 4s)     0.00005       3.34755
 149    N  5  s      Ryd( 5s)     0.00001       1.50719
 150    N  5  s      Ryd( 6s)     0.00000       5.58263
 151    N  5  s      Ryd( 8s)     0.00000       3.09866
 152    N  5  s      Ryd( 7s)     0.00000      11.45489
 153    N  5  px     Val( 2p)     1.38675      -0.26355
 154    N  5  px     Ryd( 3p)     0.00238       0.87446
 155    N  5  px     Ryd( 4p)     0.00007       2.36638
 156    N  5  px     Ryd( 5p)     0.00001       1.91925
 157    N  5  py     Val( 2p)     1.50748      -0.31487
 158    N  5  py     Ryd( 3p)     0.00164       0.89295
 159    N  5  py     Ryd( 4p)     0.00010       2.37914
 160    N  5  py     Ryd( 5p)     0.00005       1.77704
 161    N  5  pz     Val( 2p)     1.60495      -0.29433
 162    N  5  pz     Ryd( 3p)     0.00213       0.81901
 163    N  5  pz     Ryd( 4p)     0.00006       2.36887
 164    N  5  pz     Ryd( 5p)     0.00003       1.77774
 165    N  5  dxy    Ryd( 3d)     0.00194       1.10074
 166    N  5  dxy    Ryd( 4d)     0.00009       1.22568
 167    N  5  dxy    Ryd( 5d)     0.00001       4.85777
 168    N  5  dxz    Ryd( 3d)     0.00595       1.40471
 169    N  5  dxz    Ryd( 4d)     0.00005       1.49208
 170    N  5  dxz    Ryd( 5d)     0.00002       5.13316
 171    N  5  dyz    Ryd( 3d)     0.00614       1.27647
 172    N  5  dyz    Ryd( 4d)     0.00019       1.00927
 173    N  5  dyz    Ryd( 5d)     0.00002       4.92740
 174    N  5  dx2y2  Ryd( 3d)     0.00653       1.47402
 175    N  5  dx2y2  Ryd( 4d)     0.00014       1.23235
 176    N  5  dx2y2  Ryd( 5d)     0.00001       5.00518
 177    N  5  dz2    Ryd( 3d)     0.00171       1.06472
 178    N  5  dz2    Ryd( 4d)     0.00011       1.13558
 179    N  5  dz2    Ryd( 5d)     0.00002       4.80020

 180    H  6  s      Val( 1s)     0.59701       0.04590
 181    H  6  s      Ryd( 2s)     0.00054       1.84213
 182    H  6  s      Ryd( 3s)     0.00015       0.61627
 183    H  6  s      Ryd( 4s)     0.00004       0.99484
 184    H  6  px     Ryd( 2p)     0.00053       0.72507
 185    H  6  px     Ryd( 3p)     0.00019       3.88779
 186    H  6  px     Ryd( 4p)     0.00007       1.53221
 187    H  6  py     Ryd( 2p)     0.00064       0.64209
 188    H  6  py     Ryd( 3p)     0.00016       3.74209
 189    H  6  py     Ryd( 4p)     0.00004       1.35938
 190    H  6  pz     Ryd( 2p)     0.00080       0.59040
 191    H  6  pz     Ryd( 3p)     0.00023       3.63402
 192    H  6  pz     Ryd( 4p)     0.00006       1.15258

 193    H  7  s      Val( 1s)     0.59710       0.04586
 194    H  7  s      Ryd( 2s)     0.00054       1.84204
 195    H  7  s      Ryd( 3s)     0.00015       0.61485
 196    H  7  s      Ryd( 4s)     0.00004       0.99752
 197    H  7  px     Ryd( 2p)     0.00056       0.73578
 198    H  7  px     Ryd( 3p)     0.00019       3.89032
 199    H  7  px     Ryd( 4p)     0.00007       1.54005
 200    H  7  py     Ryd( 2p)     0.00064       0.64122
 201    H  7  py     Ryd( 3p)     0.00016       3.73956
 202    H  7  py     Ryd( 4p)     0.00004       1.35588
 203    H  7  pz     Ryd( 2p)     0.00078       0.58251
 204    H  7  pz     Ryd( 3p)     0.00023       3.63262
 205    H  7  pz     Ryd( 4p)     0.00006       1.14772

 206    H  8  s      Val( 1s)     0.60225       0.04086
 207    H  8  s      Ryd( 2s)     0.00039       1.74038
 208    H  8  s      Ryd( 3s)     0.00008       1.24542
 209    H  8  s      Ryd( 4s)     0.00005       0.46089
 210    H  8  px     Ryd( 2p)     0.00059       0.72231
 211    H  8  px     Ryd( 3p)     0.00020       3.83581
 212    H  8  px     Ryd( 4p)     0.00011       1.53953
 213    H  8  py     Ryd( 2p)     0.00069       0.59906
 214    H  8  py     Ryd( 3p)     0.00018       3.58676
 215    H  8  py     Ryd( 4p)     0.00007       1.29657
 216    H  8  pz     Ryd( 2p)     0.00079       0.60073
 217    H  8  pz     Ryd( 3p)     0.00025       3.66781
 218    H  8  pz     Ryd( 4p)     0.00007       1.37228

 219    H  9  s      Val( 1s)     0.60224       0.04088
 220    H  9  s      Ryd( 2s)     0.00039       1.74043
 221    H  9  s      Ryd( 3s)     0.00008       1.24457
 222    H  9  s      Ryd( 4s)     0.00005       0.46191
 223    H  9  px     Ryd( 2p)     0.00062       0.73719
 224    H  9  px     Ryd( 3p)     0.00021       3.85560
 225    H  9  px     Ryd( 4p)     0.00011       1.56858
 226    H  9  py     Ryd( 2p)     0.00069       0.59988
 227    H  9  py     Ryd( 3p)     0.00018       3.58525
 228    H  9  py     Ryd( 4p)     0.00007       1.29635
 229    H  9  pz     Ryd( 2p)     0.00076       0.58663
 230    H  9  pz     Ryd( 3p)     0.00024       3.64606
 231    H  9  pz     Ryd( 4p)     0.00006       1.34524

     Population inversion found on atom  S  1
     Population inversion found on atom  O  2
     Population inversion found on atom  O  3
     Population inversion found on atom  N  4
     Population inversion found on atom  N  5
     Population inversion found on atom  H  6
     Population inversion found on atom  H  7
     Population inversion found on atom  H  8
     Population inversion found on atom  H  9


 Summary of Natural Population Analysis:

                                     Natural Population
             Natural    ---------------------------------------------
  Atom No    Charge        Core      Valence    Rydberg      Total
 --------------------------------------------------------------------
    S  1    2.38593      9.99926     3.40412    0.21068    13.61407
    O  2   -0.93068      1.99984     6.88806    0.04279     8.93068
    O  3   -0.93083      1.99984     6.88821    0.04278     8.93083
    N  4   -1.07051      1.99961     6.04125    0.02965     8.07051
    N  5   -1.04152      1.99961     6.01092    0.03099     8.04152
    H  6    0.39954      0.00000     0.59701    0.00345     0.60046
    H  7    0.39945      0.00000     0.59710    0.00345     0.60055
    H  8    0.39430      0.00000     0.60225    0.00345     0.60570
    H  9    0.39432      0.00000     0.60224    0.00344     0.60568
 ====================================================================
 * Total *  0.00000     17.99816    31.63116    0.37068    50.00000

                                 Natural Population
 ---------------------------------------------------------
   Core                      17.99816 ( 99.9898% of   18)
   Valence                   31.63116 ( 98.8474% of   32)
   Natural Minimal Basis     49.62932 ( 99.2586% of   50)
   Natural Rydberg Basis      0.37068 (  0.7414% of   50)
 ---------------------------------------------------------

    Atom No         Natural Electron Configuration
 ----------------------------------------------------------------------------
      S  1      [core]3s( 1.02)3p( 2.38)3d( 0.18)4p( 0.03)
      O  2      [core]2s( 1.82)2p( 5.07)3d( 0.04)
      O  3      [core]2s( 1.82)2p( 5.07)3d( 0.04)
      N  4      [core]2s( 1.53)2p( 4.51)3p( 0.01)3d( 0.02)
      N  5      [core]2s( 1.51)2p( 4.50)3p( 0.01)3d( 0.02)
      H  6            1s( 0.60)
      H  7            1s( 0.60)
      H  8            1s( 0.60)
      H  9            1s( 0.60)


 Wiberg bond index matrix in the NAO basis:

     Atom    1       2       3       4       5       6       7       8       9
     ---- ------  ------  ------  ------  ------  ------  ------  ------  ------
   1.  S  0.0000  1.2969  1.2968  0.8131  0.8486  0.0025  0.0025  0.0030  0.0030
   2.  O  1.2969  0.0000  0.1497  0.0868  0.0845  0.0019  0.0085  0.0154  0.0018
   3.  O  1.2968  0.1497  0.0000  0.0868  0.0845  0.0084  0.0019  0.0018  0.0154
   4.  N  0.8131  0.0868  0.0868  0.0000  0.0583  0.8257  0.8257  0.0006  0.0006
   5.  N  0.8486  0.0845  0.0845  0.0583  0.0000  0.0046  0.0045  0.8265  0.8264
   6.  H  0.0025  0.0019  0.0084  0.8257  0.0046  0.0000  0.0005  0.0001  0.0000
   7.  H  0.0025  0.0085  0.0019  0.8257  0.0045  0.0005  0.0000  0.0000  0.0001
   8.  H  0.0030  0.0154  0.0018  0.0006  0.8265  0.0001  0.0000  0.0000  0.0005
   9.  H  0.0030  0.0018  0.0154  0.0006  0.8264  0.0000  0.0001  0.0005  0.0000


 Wiberg bond index, Totals by atom:

     Atom    1
     ---- ------
   1.  S  4.2665
   2.  O  1.6454
   3.  O  1.6452
   4.  N  2.6975
   5.  N  2.7379
   6.  H  0.8437
   7.  H  0.8437
   8.  H  0.8478
   9.  H  0.8478


 Atom-atom overlap-weighted NAO bond order:

     Atom    1       2       3       4       5       6       7       8       9
     ---- ------  ------  ------  ------  ------  ------  ------  ------  ------
   1.  S  0.0000  0.5977  0.5976  0.5188  0.5369 -0.0150 -0.0149 -0.0144 -0.0144
   2.  O  0.5977  0.0000 -0.0578 -0.0402 -0.0469  0.0033 -0.0006 -0.0012  0.0025
   3.  O  0.5976 -0.0578  0.0000 -0.0403 -0.0469 -0.0006  0.0033  0.0025 -0.0012
   4.  N  0.5188 -0.0402 -0.0403  0.0000 -0.0364  0.7191  0.7191  0.0022  0.0023
   5.  N  0.5369 -0.0469 -0.0469 -0.0364  0.0000 -0.0005 -0.0005  0.7234  0.7233
   6.  H -0.0150  0.0033 -0.0006  0.7191 -0.0005  0.0000 -0.0104  0.0001 -0.0002
   7.  H -0.0149 -0.0006  0.0033  0.7191 -0.0005 -0.0104  0.0000 -0.0002  0.0001
   8.  H -0.0144 -0.0012  0.0025  0.0022  0.7234  0.0001 -0.0002  0.0000 -0.0106
   9.  H -0.0144  0.0025 -0.0012  0.0023  0.7233 -0.0002  0.0001 -0.0106  0.0000


 Atom-atom overlap-weighted NAO bond order, Totals by atom:

     Atom    1
     ---- ------
   1.  S  2.1922
   2.  O  0.4568
   3.  O  0.4567
   4.  N  1.8445
   5.  N  1.8523
   6.  H  0.6958
   7.  H  0.6958
   8.  H  0.7019
   9.  H  0.7019


 NATURAL BOND ORBITAL ANALYSIS:

                            Occupancies       Lewis Structure    Low   High
         Max    Occ     -------------------  -----------------   occ   occ
  Cycle  Ctr   Thresh    Lewis   non-Lewis     CR  BD  nC  LP    (L)   (NL)
 ============================================================================
    1     2     1.90    47.12199   2.87801      9   7   0   9     5      6
    2     2     1.81    48.74910   1.25090      9  10   0   6     0      6
    3     2     1.78    48.89650   1.10350      9   8   0   8     0      4
 ----------------------------------------------------------------------------

 Structure accepted: No low occupancy Lewis orbitals

 -------------------------------------------------------
   Core                     17.99816 ( 99.990% of  18)
   Valence Lewis            30.89833 ( 96.557% of  32)
  ==================      =============================
   Total Lewis              48.89650 ( 97.793% of  50)
  -----------------------------------------------------
   Valence non-Lewis         0.83155 (  1.663% of  50)
   Rydberg non-Lewis         0.27195 (  0.544% of  50)
  ==================      =============================
   Total non-Lewis           1.10350 (  2.207% of  50)
 -------------------------------------------------------


     (Occupancy)   Bond orbital / Coefficients / Hybrids
 ------------------ Lewis ------------------------------------------------------
   1. (2.00000) CR ( 1) S  1            s(100.00%)
                                         1.0000  0.0000  0.0000  0.0000  0.0000
                                         0.0000  0.0000  0.0000  0.0000  0.0000
                                         0.0000  0.0000  0.0000  0.0000  0.0000
                                         0.0000  0.0000  0.0000  0.0000  0.0000
                                         0.0000  0.0000  0.0000  0.0000  0.0000
                                         0.0000  0.0000  0.0000  0.0000  0.0000
                                         0.0000  0.0000  0.0000  0.0000  0.0000
                                         0.0000  0.0000  0.0000  0.0000
   2. (1.99956) CR ( 2) S  1            s(100.00%)
                                         0.0000  1.0000  0.0000  0.0000  0.0000
                                         0.0000  0.0000  0.0000  0.0000  0.0000
                                         0.0000  0.0000  0.0000  0.0000  0.0000
                                         0.0000  0.0000  0.0000  0.0000  0.0000
                                         0.0000  0.0000  0.0000  0.0000  0.0000
                                         0.0000  0.0000  0.0000  0.0000  0.0000
                                         0.0000  0.0000  0.0000  0.0000  0.0000
                                         0.0000  0.0000  0.0000  0.0000
   3. (1.99984) CR ( 3) S  1            s(  0.00%)p 1.00(100.00%)
                                         0.0000  0.0000  0.0000  0.0000  0.0000
                                         0.0000  0.0000  0.0000  0.0000  1.0000
                                         0.0000  0.0000  0.0000  0.0000  0.0000
                                         0.0000  0.0000  0.0000  0.0000  0.0000
                                         0.0000  0.0000  0.0000  0.0000  0.0000
                                         0.0000  0.0000  0.0000  0.0000  0.0000
                                         0.0000  0.0000  0.0000  0.0000  0.0000
                                         0.0000  0.0000  0.0000  0.0000
   4. (1.99994) CR ( 4) S  1            s(  0.00%)p 1.00(100.00%)
                                         0.0000  0.0000  0.0000  0.0000  0.0000
                                         0.0000  0.0000  0.0000  0.0000  0.0000
                                         0.0000  0.0000  0.0000  0.0000  1.0000
                                         0.0000  0.0000  0.0000  0.0000  0.0000
                                         0.0000  0.0000  0.0000  0.0000  0.0000
                                         0.0000  0.0000  0.0000  0.0000  0.0000
                                         0.0000  0.0000  0.0000  0.0000  0.0000
                                         0.0000  0.0000  0.0000  0.0000
   5. (1.99993) CR ( 5) S  1            s(  0.00%)p 1.00(100.00%)
                                         0.0000  0.0000  0.0000  0.0000  0.0000
                                         0.0000  0.0000  0.0000  0.0000  0.0000
                                         0.0000  0.0000  0.0000  0.0000  0.0000
                                         0.0000  0.0000  0.0000  0.0000  1.0000
                                         0.0000  0.0000  0.0000  0.0000  0.0000
                                         0.0000  0.0000  0.0000  0.0000  0.0000
                                         0.0000  0.0000  0.0000  0.0000  0.0000
                                         0.0000  0.0000  0.0000  0.0000
   6. (1.99984) CR ( 1) O  2            s(100.00%)
                                         1.0000  0.0000  0.0000  0.0000  0.0000
                                         0.0000  0.0000  0.0000  0.0000  0.0000
                                         0.0000  0.0000  0.0000  0.0000  0.0000
                                         0.0000  0.0000  0.0000  0.0000  0.0000
                                         0.0000  0.0000  0.0000  0.0000  0.0000
                                         0.0000  0.0000  0.0000  0.0000  0.0000
                                         0.0000  0.0000  0.0000  0.0000  0.0000
   7. (1.99984) CR ( 1) O  3            s(100.00%)
                                         1.0000  0.0000  0.0000  0.0000  0.0000
                                         0.0000  0.0000  0.0000  0.0000  0.0000
                                         0.0000  0.0000  0.0000  0.0000  0.0000
                                         0.0000  0.0000  0.0000  0.0000  0.0000
                                         0.0000  0.0000  0.0000  0.0000  0.0000
                                         0.0000  0.0000  0.0000  0.0000  0.0000
                                         0.0000  0.0000  0.0000  0.0000  0.0000
   8. (1.99961) CR ( 1) N  4            s(100.00%)
                                         1.0000  0.0000  0.0000  0.0000  0.0000
                                         0.0000  0.0000  0.0000  0.0000  0.0000
                                         0.0000  0.0000  0.0000  0.0000  0.0000
                                         0.0000  0.0000  0.0000  0.0000  0.0000
                                         0.0000  0.0000  0.0000  0.0000  0.0000
                                         0.0000  0.0000  0.0000  0.0000  0.0000
                                         0.0000  0.0000  0.0000  0.0000  0.0000
   9. (1.99961) CR ( 1) N  5            s(100.00%)
                                         1.0000  0.0000  0.0000  0.0000  0.0000
                                         0.0000  0.0000  0.0000  0.0000  0.0000
                                         0.0000  0.0000  0.0000  0.0000  0.0000
                                         0.0000  0.0000  0.0000  0.0000  0.0000
                                         0.0000  0.0000  0.0000  0.0000  0.0000
                                         0.0000  0.0000  0.0000  0.0000  0.0000
                                         0.0000  0.0000  0.0000  0.0000  0.0000
  10. (1.97948) LP ( 1) O  2            s( 74.75%)p 0.34( 25.19%)d 0.00(  0.06%)
                                         0.0000  0.8646 -0.0074  0.0007  0.0006
                                         0.0001  0.0000  0.0000  0.4200 -0.0037
                                         0.0014  0.0056  0.0405  0.0007 -0.0004
                                         0.0004  0.2716 -0.0033  0.0011  0.0032
                                        -0.0024 -0.0002 -0.0001 -0.0197 -0.0025
                                        -0.0006 -0.0019 -0.0003  0.0000 -0.0140
                                        -0.0025 -0.0005  0.0001 -0.0002  0.0001
  11. (1.81583) LP ( 2) O  2            s(  0.00%)p 1.00( 99.35%)d 0.01(  0.65%)
                                         0.0000  0.0020 -0.0008  0.0012  0.0002
                                        -0.0006  0.0000  0.0001 -0.0293 -0.0005
                                         0.0005  0.0001 -0.9789 -0.0069  0.0015
                                         0.0008  0.1852  0.0013 -0.0003  0.0000
                                         0.0675 -0.0008 -0.0007 -0.0108  0.0004
                                         0.0001  0.0405  0.0018 -0.0003 -0.0007
                                         0.0011  0.0000 -0.0120  0.0003  0.0001
  12. (1.78576) LP ( 3) O  2            s(  0.04%)p99.99( 99.28%)d15.61(  0.67%)
                                         0.0000  0.0207  0.0007 -0.0012 -0.0007
                                        -0.0011  0.0000 -0.0002  0.5148  0.0034
                                         0.0007 -0.0003 -0.1733 -0.0014  0.0001
                                         0.0001 -0.8353 -0.0048  0.0005  0.0007
                                         0.0095  0.0004  0.0000  0.0325 -0.0021
                                        -0.0002  0.0124  0.0005 -0.0001 -0.0322
                                         0.0024  0.0002  0.0661  0.0028 -0.0005
  13. (1.97948) LP ( 1) O  3            s( 74.75%)p 0.34( 25.19%)d 0.00(  0.06%)
                                         0.0000  0.8646 -0.0074  0.0007  0.0006
                                         0.0001  0.0000  0.0000 -0.4380  0.0040
                                        -0.0015 -0.0058  0.0394  0.0007 -0.0004
                                         0.0004  0.2417 -0.0031  0.0010  0.0028
                                         0.0024  0.0002  0.0001  0.0186  0.0024
                                         0.0005 -0.0017 -0.0003  0.0000 -0.0153
                                        -0.0027 -0.0005  0.0024  0.0000  0.0002
  14. (1.81584) LP ( 2) O  3            s(  0.00%)p 1.00( 99.35%)d 0.01(  0.65%)
                                         0.0000  0.0020 -0.0008  0.0012  0.0002
                                        -0.0006  0.0000  0.0001  0.0187  0.0004
                                        -0.0004 -0.0001 -0.9790 -0.0069  0.0015
                                         0.0008  0.1862  0.0014 -0.0003  0.0000
                                        -0.0701  0.0007  0.0007  0.0120 -0.0004
                                        -0.0001  0.0358  0.0018 -0.0003 -0.0012
                                         0.0011  0.0000 -0.0106  0.0002  0.0001
  15. (1.78583) LP ( 3) O  3            s(  0.04%)p99.99( 99.29%)d15.64(  0.67%)
                                         0.0000  0.0206  0.0007 -0.0012 -0.0007
                                        -0.0011  0.0000 -0.0002 -0.4552 -0.0030
                                        -0.0007  0.0002 -0.1739 -0.0014  0.0001
                                         0.0001 -0.8691 -0.0051  0.0005  0.0007
                                        -0.0104 -0.0004  0.0000 -0.0424  0.0019
                                         0.0003  0.0116  0.0005 -0.0001 -0.0295
                                         0.0022  0.0002  0.0616  0.0030 -0.0005
  16. (1.93849) LP ( 1) N  4            s( 20.61%)p 3.84( 79.09%)d 0.01(  0.30%)
                                         0.0000  0.4538  0.0113 -0.0028  0.0008
                                        -0.0012  0.0002  0.0001  0.0304  0.0010
                                         0.0001  0.0000 -0.4310 -0.0171  0.0015
                                        -0.0018 -0.7767 -0.0266 -0.0038 -0.0011
                                         0.0012 -0.0001  0.0000  0.0029 -0.0001
[...]
                                             deloc 124:  0.01 -0.02  0.01  0.02
                                             deloc 221: -0.01  0.01  0.02  0.02

  13. LP ( 1) O 3            15.26 -1.01 -7.65 17.10    15.28 -1.00 -7.66 17.12
                                             deloc  27:  0.08 -0.01 -0.04  0.09
                                             deloc  29: -0.01  0.06  0.04  0.07
                                             deloc  28: -0.01 -0.05  0.05  0.07
                                             deloc  26: -0.03 -0.01 -0.06  0.07
                                             deloc  36:  0.02 -0.01 -0.04  0.05
                                             deloc  40: -0.03  0.00  0.02  0.03
                                             deloc  34:  0.03  0.00  0.01  0.03

  14. LP ( 2) O 3             8.09 -0.48 -3.73  8.92    10.75 -0.61 -5.18 11.95
                                             deloc  28: -0.83 -0.06  0.56  1.01
                                             deloc  29: -0.62  0.10  0.40  0.74
                                             deloc  37: -0.45  0.00  0.27  0.53
                                             deloc  35: -0.45  0.04  0.01  0.45
                                             deloc  33: -0.08  0.08  0.07  0.13
                                             deloc  11: -0.10  0.00  0.02  0.10
                                             deloc 154: -0.03  0.03  0.04  0.05
                                             deloc 124: -0.02  0.00  0.03  0.03
                                             deloc  30: -0.02 -0.01  0.01  0.03
                                             deloc 197:  0.00 -0.02  0.01  0.02

  15. LP ( 3) O 3             7.92 -0.33 -3.31  8.59    10.94 -0.56 -4.84 11.97
                                             deloc  26: -1.40  0.10  0.60  1.53
                                             deloc  34: -0.62  0.00  0.14  0.64
                                             deloc  36: -0.20  0.07  0.44  0.49
                                             deloc  29: -0.37  0.07  0.14  0.40
                                             deloc  28: -0.21 -0.01  0.08  0.23
                                             deloc  33: -0.03  0.03  0.04  0.06
                                             deloc  30: -0.03 -0.03  0.04  0.06
                                             deloc  12: -0.05  0.00  0.00  0.05
                                             deloc  38: -0.04  0.00  0.00  0.04
                                             deloc  27: -0.01  0.00 -0.02  0.02
                                             deloc  39: -0.01  0.00 -0.02  0.02
                                             deloc 124: -0.01 -0.02  0.01  0.02
                                             deloc 209:  0.01  0.01  0.02  0.02

  16. LP ( 1) N 4            -0.41 -6.68 13.96 15.48    -0.45 -7.36 15.05 16.76
                                             deloc  38:  0.01  0.21 -0.33  0.39
                                             deloc  29:  0.01  0.18 -0.34  0.38
                                             deloc  27:  0.06  0.09 -0.10  0.14
                                             deloc  26: -0.05  0.08 -0.10  0.14
                                             deloc  12: -0.02  0.03 -0.05  0.06
                                             deloc  15:  0.02  0.03 -0.05  0.06
                                             deloc  35:  0.00 -0.01 -0.06  0.06
                                             deloc 184: -0.04 -0.04 -0.01  0.06
                                             deloc 196:  0.04 -0.04 -0.01  0.06
                                             deloc  30:  0.04  0.02 -0.01  0.04
                                             deloc  31: -0.04  0.02 -0.01  0.04
                                             deloc  28:  0.00 -0.02  0.02  0.03
                                             deloc 156:  0.00  0.02 -0.01  0.02

  17. LP ( 1) N 5            -0.02 14.54  2.27 14.72    -0.03 16.09  2.63 16.31
                                             deloc  28:  0.00 -0.53 -0.12  0.54
                                             deloc  38:  0.00 -0.46 -0.06  0.46
                                             deloc  26:  0.01 -0.13 -0.01  0.13
                                             deloc  27: -0.01 -0.12 -0.01  0.12
                                             deloc  35:  0.00 -0.03 -0.09  0.09
                                             deloc  11: -0.02 -0.06 -0.02  0.06
                                             deloc  14:  0.02 -0.05 -0.02  0.06
                                             deloc 208:  0.05  0.00  0.04  0.06
                                             deloc 220: -0.05  0.00  0.04  0.06
                                             deloc  34:  0.00 -0.05 -0.01  0.05
                                             deloc 126:  0.00 -0.04  0.02  0.05
                                             deloc  32: -0.03 -0.02 -0.01  0.04
                                             deloc  33:  0.04 -0.02 -0.01  0.04
                                             deloc  30:  0.00 -0.02  0.01  0.02
                                             deloc  24:  0.01  0.02 -0.01  0.02
                                             deloc  25: -0.01  0.02 -0.01  0.02
                                             deloc  31:  0.00 -0.02  0.01  0.02
                                             deloc  42:  0.00  0.02 -0.01  0.02

  18. BD ( 1) S 1- O 2       -7.40 -0.40 -4.40  8.62    -7.52 -0.41 -4.62  8.84
                                             deloc  28: -0.03 -0.24  0.20  0.32
                                             deloc  29: -0.03  0.25  0.12  0.28
                                             deloc  27:  0.11 -0.01 -0.11  0.15
                                             deloc  12:  0.02 -0.01 -0.03  0.04
                                             deloc  32:  0.01  0.02  0.01  0.03

  19. BD ( 1) S 1- O 3        7.86 -0.38 -3.88  8.77     8.00 -0.38 -4.08  8.99
                                             deloc  28:  0.01 -0.25  0.20  0.32
                                             deloc  29:  0.02  0.25  0.12  0.28
                                             deloc  26: -0.10 -0.01 -0.11  0.15
                                             deloc  15: -0.02 -0.01 -0.04  0.04
                                             deloc  33: -0.01  0.02  0.01  0.03

  20. BD ( 1) S 1- N 4       -0.14 -7.08  6.91  9.89    -0.15 -7.24  7.05 10.10
                                             deloc  29: -0.01  0.29  0.19  0.34
                                             deloc  26: -0.25 -0.06 -0.14  0.29
                                             deloc  27:  0.26 -0.06 -0.12  0.29
                                             deloc  31:  0.07 -0.03 -0.02  0.08
                                             deloc  30: -0.06 -0.03 -0.02  0.08

  21. BD ( 1) S 1- N 5       -0.11  8.35  5.32  9.91    -0.11  8.61  5.34 10.13
                                             deloc  28: -0.01 -0.19  0.23  0.30
                                             deloc  27:  0.24  0.02 -0.12  0.27
                                             deloc  26: -0.23  0.02 -0.14  0.27
                                             deloc  32:  0.06 -0.01  0.03  0.07
                                             deloc  33: -0.06 -0.01  0.03  0.07

  22. BD ( 1) N 4- H 6       -5.02-13.01  9.16 16.69    -5.01-13.23  9.33 16.95
                                             deloc  28:  0.00  0.05 -0.06  0.08
                                             deloc  26:  0.02  0.05 -0.03  0.07
                                             deloc  29:  0.00  0.05 -0.02  0.06
                                             deloc  27:  0.02  0.02 -0.04  0.05
                                             deloc  16: -0.02  0.01  0.03  0.03
                                             deloc  36:  0.01  0.02 -0.02  0.03
                                             deloc  39:  0.00 -0.02  0.02  0.03
                                             deloc  37:  0.01  0.01 -0.02  0.03

  23. BD ( 1) N 4- H 7        4.60-12.97  9.52 16.73     4.57-13.20  9.69 17.00
                                             deloc  28:  0.01  0.05 -0.05  0.08
                                             deloc  27: -0.02  0.05 -0.04  0.07
                                             deloc  29:  0.01  0.05 -0.02  0.06
                                             deloc  26: -0.01  0.02 -0.04  0.05
                                             deloc  16:  0.01  0.01  0.03  0.03
                                             deloc  36: -0.01  0.02 -0.02  0.03
                                             deloc  39:  0.00 -0.02  0.02  0.03
                                             deloc  37: -0.01  0.01 -0.02  0.03

  24. BD ( 1) N 5- H 8        4.59 12.99  9.88 16.95     4.59 13.25 10.03 17.24
                                             deloc  26: -0.04 -0.12 -0.09  0.16
                                             deloc  29:  0.00 -0.07 -0.03  0.07
                                             deloc  36: -0.01 -0.04 -0.01  0.04
                                             deloc  38:  0.01 -0.01 -0.02  0.03
                                             deloc  39:  0.00  0.02  0.01  0.02
                                             deloc  37: -0.01 -0.02 -0.01  0.02
                                             deloc  41:  0.00  0.00  0.02  0.02

  25. BD ( 1) N 5- H 9       -5.11 12.97  9.56 16.91    -5.12 13.23  9.71 17.19
                                             deloc  27:  0.05 -0.12 -0.09  0.16
                                             deloc  29:  0.00 -0.07 -0.03  0.07
                                             deloc  36:  0.01 -0.04 -0.01  0.04
                                             deloc  38: -0.01 -0.01 -0.02  0.03
                                             deloc  39:  0.00  0.02  0.01  0.02
                                             deloc  37:  0.01 -0.02 -0.01  0.02
                                             deloc  41:  0.00  0.00  0.02  0.02

   Residual nuclear charge    0.22 -0.87 -6.40  6.47     0.22 -0.87 -6.40  6.47
                            ----------------------------------------------------
         Net dipole moment    1.28  5.93 25.59 26.30     1.43  6.23 21.03 21.98
 Delocalization correction                              -0.15 -0.30  4.56  4.57
                            ----------------------------------------------------
       Total dipole moment    1.28  5.93 25.59 26.30     1.28  5.93 25.59 26.30


 NATURAL RESONANCE THEORY ANALYSIS:

 Maximum reference structures : 20
 Maximum resonance structures : 300
 Memory requirements : 3223545 words of 99830816 available

 0 candidate reference structure(s) calculated by SR LEWIS
 Possible hypervalency for atom 1; restart with full density matrix
 8 candidate reference structure(s) calculated by SR LEWIS
 Initial loops searched 8 bonding pattern(s); 8 were retained
 Delocalization list threshold set to 2.73 kcal/mol for reference 1
 Delocalization list threshold set to 1.00 kcal/mol for reference 2
 Delocalization list threshold set to 1.68 kcal/mol for reference 3
 Delocalization list threshold set to 1.41 kcal/mol for reference 4
 Delocalization list threshold set to 2.73 kcal/mol for reference 5
 Delocalization list threshold set to 1.69 kcal/mol for reference 6
 Delocalization list threshold set to 1.41 kcal/mol for reference 7
 Delocalization list threshold set to 4.89 kcal/mol for reference 8
 Reference   1:  rho*=1.58450, f(w)=0.79778 converged after  55 iterations
 Reference   2:  rho*=1.10350, f(w)=0.78629 converged after  32 iterations
 Reference   3:  rho*=1.73305, f(w)=0.49187 converged after  38 iterations
 Reference   4:  rho*=1.70601, f(w)=0.59701 converged after  37 iterations
 Reference   5:  rho*=1.58432, f(w)=0.79728 converged after  47 iterations
 Reference   6:  rho*=1.73322, f(w)=0.49105 converged after  37 iterations
 Reference   7:  rho*=1.70571, f(w)=0.59746 converged after  38 iterations
 Reference   8:  rho*=2.34770, f(w)=0.35765 converged after  18 iterations
 Multi-ref( 8):  D(W)=0.00824, F(W)=0.09376 converged after 232 iterations
 1 reference structure has low weight (<35.0% of 17.6%); discarded
 Multi-ref( 7):  D(W)=0.00824, F(W)=0.09377 converged after 184 iterations

                                                fractional accuracy f(w)
                  non-Lewis             -------------------------------------
  Ref     Wgt      density      d(0)      all NBOs     val+core     valence
 ----------------------------------------------------------------------------
   1    0.16872    1.58450    0.06426     0.79778      0.90441      0.90442
   2    0.31228    1.10350    0.03907     0.78629      0.88094      0.88095
   3    0.08546    1.73305    0.06951     0.49187      0.80519      0.80519
   4    0.08969    1.70601    0.06816     0.59701      0.84278      0.84278
   5    0.16872    1.58432    0.06425     0.79728      0.90337      0.90338
   6    0.08545    1.73322    0.06952     0.49105      0.80486      0.80487
   7    0.08969    1.70571    0.06815     0.59746      0.84293      0.84293


 TOPO matrix for the leading resonance structure:

     Atom  1   2   3   4   5   6   7   8   9
     ---- --- --- --- --- --- --- --- --- ---
   1.  S   0   1   1   1   1   0   0   0   0
   2.  O   1   3   0   0   0   0   0   0   0
   3.  O   1   0   3   0   0   0   0   0   0
   4.  N   1   0   0   1   0   1   1   0   0
   5.  N   1   0   0   0   1   0   0   1   1
   6.  H   0   0   0   1   0   0   0   0   0
   7.  H   0   0   0   1   0   0   0   0   0
   8.  H   0   0   0   0   1   0   0   0   0
   9.  H   0   0   0   0   1   0   0   0   0

         Resonance
    RS   Weight(%)                  Added(Removed)
 ---------------------------------------------------------------------------
    1*(3)  38.06
    2*      9.76    S  1- O  2, ( S  1- O  3), ( O  2),  O  3
    3*      9.75   ( S  1- O  2),  S  1- O  3,  O  2, ( O  3)
    4*(2)   7.52    S  1- O  3, ( S  1- N  5), ( O  3),  N  5
    5*(2)   7.52    S  1- O  2, ( S  1- N  5), ( O  2),  N  5
    6*(2)   7.38    S  1- O  2, ( S  1- N  4), ( O  2),  N  4
    7*(2)   7.37    S  1- O  3, ( S  1- N  4), ( O  3),  N  4
    8 (2)   2.38    S  1- O  2,  S  1- O  3, ( S  1- N  4), ( S  1- N  5),
                   ( O  2), ( O  3),  N  4,  N  5
    9       1.14    S  1- O  3,  S  1- O  3, ( S  1- N  4), ( S  1- N  5),
                   ( O  3), ( O  3),  N  4,  N  5
   10       1.14    S  1- O  2,  S  1- O  2, ( S  1- N  4), ( S  1- N  5),
                   ( O  2), ( O  2),  N  4,  N  5
   11       0.83    S  1- O  2,  S  1- O  2, ( S  1- O  3), ( S  1- N  5),
                   ( O  2), ( O  2),  O  3,  N  5
   12       0.81   ( S  1- O  2),  S  1- O  3,  S  1- O  3, ( S  1- N  5),
                    O  2, ( O  3), ( O  3),  N  5
   13       0.73   ( S  1- O  2),  S  1- O  3,  S  1- O  3, ( S  1- N  4),
                    O  2, ( O  3), ( O  3),  N  4
   14       0.71    S  1- O  2,  S  1- O  2, ( S  1- O  3), ( S  1- N  4),
                   ( O  2), ( O  2),  O  3,  N  4
   15       0.68   ( S  1- N  4),  S  1- N  5,  N  4, ( N  5)
   16 (2)   0.47   ( S  1- O  2),  S  1- N  4,  O  2, ( N  4)
   17       0.47   ( S  1- O  2),  S  1- O  3, ( S  1- N  4),  S  1- N  5,
                    O  2, ( O  3),  N  4, ( N  5)
   18       0.46    S  1- O  2, ( S  1- O  3), ( S  1- N  4),  S  1- N  5,
                   ( O  2),  O  3,  N  4, ( N  5)
   19       0.43    S  1- N  4, ( S  1- N  5), ( N  4),  N  5
   20       0.39   ( S  1- O  3),  S  1- N  4,  O  3, ( N  4)
   21       0.26   ( S  1- O  2),  S  1- N  5,  O  2, ( N  5)
   22       0.26   ( S  1- O  3),  S  1- N  5,  O  3, ( N  5)
   23       0.19   ( S  1- O  2), ( S  1- N  4),  S  1,  N  4
   24       0.19   ( S  1- O  3), ( S  1- N  4),  S  1,  N  4
   25-66    1.09
 ---------------------------------------------------------------------------
          100.00   * Total *                [* = reference structure]


 Natural Bond Order:  (total/covalent/ionic)

     Atom       1      2      3      4      5      6      7      8      9
     ----   ------ ------ ------ ------ ------ ------ ------ ------ ------
   1.  S  t 0.0107 1.1994 1.1995 0.7826 0.7971 0.0000 0.0000 0.0000 0.0000
          c   ---  0.5803 0.5803 0.5356 0.5349 0.0000 0.0000 0.0000 0.0000
          i   ---  0.6190 0.6192 0.2471 0.2622 0.0000 0.0000 0.0000 0.0000

   2.  O  t 1.1994 2.7964 0.0000 0.0000 0.0000 0.0000 0.0000 0.0000 0.0000
          c 0.5803   ---  0.0000 0.0000 0.0000 0.0000 0.0000 0.0000 0.0000
          i 0.6190   ---  0.0000 0.0000 0.0000 0.0000 0.0000 0.0000 0.0000

   3.  O  t 1.1995 0.0000 2.7964 0.0000 0.0000 0.0000 0.0000 0.0000 0.0000
          c 0.5803 0.0000   ---  0.0000 0.0000 0.0000 0.0000 0.0000 0.0000
          i 0.6192 0.0000   ---  0.0000 0.0000 0.0000 0.0000 0.0000 0.0000

   4.  N  t 0.7826 0.0000 0.0000 1.2170 0.0000 0.9995 0.9996 0.0000 0.0000
          c 0.5356 0.0000 0.0000   ---  0.0000 0.5962 0.5963 0.0000 0.0000
          i 0.2471 0.0000 0.0000   ---  0.0000 0.4033 0.4032 0.0000 0.0000

   5.  N  t 0.7971 0.0000 0.0000 0.0000 1.2033 0.0000 0.0000 0.9993 0.9993
          c 0.5349 0.0000 0.0000 0.0000   ---  0.0000 0.0000 0.6001 0.6001
          i 0.2622 0.0000 0.0000 0.0000   ---  0.0000 0.0000 0.3991 0.3992

   6.  H  t 0.0000 0.0000 0.0000 0.9995 0.0000 0.0000 0.0000 0.0000 0.0000
          c 0.0000 0.0000 0.0000 0.5962 0.0000   ---  0.0000 0.0000 0.0000
          i 0.0000 0.0000 0.0000 0.4033 0.0000   ---  0.0000 0.0000 0.0000

   7.  H  t 0.0000 0.0000 0.0000 0.9996 0.0000 0.0000 0.0000 0.0000 0.0000
          c 0.0000 0.0000 0.0000 0.5963 0.0000 0.0000   ---  0.0000 0.0000
          i 0.0000 0.0000 0.0000 0.4032 0.0000 0.0000   ---  0.0000 0.0000

   8.  H  t 0.0000 0.0000 0.0000 0.0000 0.9993 0.0000 0.0000 0.0000 0.0000
          c 0.0000 0.0000 0.0000 0.0000 0.6001 0.0000 0.0000   ---  0.0000
          i 0.0000 0.0000 0.0000 0.0000 0.3991 0.0000 0.0000   ---  0.0000

   9.  H  t 0.0000 0.0000 0.0000 0.0000 0.9993 0.0000 0.0000 0.0000 0.0000
          c 0.0000 0.0000 0.0000 0.0000 0.6001 0.0000 0.0000 0.0000   ---
          i 0.0000 0.0000 0.0000 0.0000 0.3992 0.0000 0.0000 0.0000   ---


 Natural Atomic Valencies:

                      Co-    Electro-
     Atom  Valency  Valency  Valency
     ----  -------  -------  -------
   1.  S    3.9786   2.2310   1.7475
   2.  O    1.1994   0.5803   0.6190
   3.  O    1.1995   0.5803   0.6192
   4.  N    2.7817   1.7281   1.0536
   5.  N    2.7957   1.7351   1.0605
   6.  H    0.9995   0.5962   0.4033
   7.  H    0.9996   0.5963   0.4032
   8.  H    0.9993   0.6001   0.3991
   9.  H    0.9993   0.6001   0.3992


 $NRTSTR
   STR        ! Wgt = 38.06%
     LONE 2 3 3 3 4 1 5 1 END
     BOND S 1 2 S 1 3 S 1 4 S 1 5 S 4 6 S 4 7 S 5 8 S 5 9 END
   END
   STR        ! Wgt =  9.76%
     LONE 2 2 3 4 4 1 5 1 END
     BOND D 1 2 S 1 4 S 1 5 S 4 6 S 4 7 S 5 8 S 5 9 END
   END
   STR        ! Wgt =  9.75%
     LONE 2 4 3 2 4 1 5 1 END
     BOND D 1 3 S 1 4 S 1 5 S 4 6 S 4 7 S 5 8 S 5 9 END
   END
   STR        ! Wgt =  7.52%
     LONE 2 3 3 2 4 1 5 2 END
     BOND S 1 2 D 1 3 S 1 4 S 4 6 S 4 7 S 5 8 S 5 9 END
   END
   STR        ! Wgt =  7.52%
     LONE 2 2 3 3 4 1 5 2 END
     BOND D 1 2 S 1 3 S 1 4 S 4 6 S 4 7 S 5 8 S 5 9 END
   END
   STR        ! Wgt =  7.38%
     LONE 2 2 3 3 4 2 5 1 END
     BOND D 1 2 S 1 3 S 1 5 S 4 6 S 4 7 S 5 8 S 5 9 END
   END
   STR        ! Wgt =  7.37%
     LONE 2 3 3 2 4 2 5 1 END
     BOND S 1 2 D 1 3 S 1 5 S 4 6 S 4 7 S 5 8 S 5 9 END
   END
 $END

 Maximum scratch memory used by NBO was 3831405 words
 Maximum scratch memory used by GENNBO was 269445 words

 Total cpu seconds     user:     740.000   user+sys:     770.000
  
 Total elapsed time:    3690 seconds

Job cs completed on d6copt267.crc.nd.edu at Fri Apr 11 14:34:55 2014
