Job tsa started on d6copt016.crc.nd.edu at Mon Apr  7 12:26:58 2014
jobid: d6copt016-1-5342d1d1

  +--------------------------------------------------------------------+
  |  Jaguar version 8.1, release  14                                   |
  |                                                                    |
  |  Copyright Schrodinger, LLC                                        |
  |  All Rights Reserved.                                              |
  |                                                                    |
  |  Use of this program should be acknowledged in publications as:    |
  |  Jaguar, version 8.1, Schrodinger, LLC, New York, NY, 2013.        |
  +--------------------------------------------------------------------+
  
  start of program pre
  
  Job name: tsa
  Executables used: /opt/crc/schrodinger/2013u2/jaguar-v81014/bin/Linux-x86_64
  Temporary files : /tmp/ehansen3/tsa
  Maestro file (input):  tsa.mae
  Maestro file (output): tsa.01.mae
  
  
  basis set:             cc-pvtz(-f)++   
  net molecular charge:    0
  multiplicity:            1
  
  number of basis functions....          216
  
 Input geometry:
                                   angstroms
  atom               x                 y                 z
  S1            0.0026190000      0.0001860000      0.1146930000 
  O2            1.2567470000     -0.0822520000      0.8062830000 
  O3           -1.2343230000      0.0915050000      0.8354640000 
  N4           -0.0345700000      1.2643880000     -0.9590940000 
  N5            0.0141800000     -1.2771120000     -0.9436010000 
  H6            0.8626230000      1.7354420000     -0.9230690000 
  H7           -0.2393370000      0.9333930000     -1.8953440000 
  H8           -0.8798470000     -1.7551540000     -0.9396220000 
  H9            0.7675440000     -1.9013690000     -0.6774360000 
   
  principal moments of inertia:
        amu*angstrom^2:      103.45010      107.95749      110.78396
                g*cm^2: 1.71782913E-38 1.79267603E-38 1.83961063E-38
   
  rotational constants:
               cm^(-1):      0.16295421      0.15615063      0.15216670
                   GHz:      4.88524421      4.68127797      4.56184296
   
  Molecular weight:      96.00 amu
   
  Stoichiometry: N2H4SO2
  Molecular Point Group: C1      
  Point Group used: C1
  
 
Number of optimization coordinates:    21
Number of independent coordinates:     21
Number of non-redundant coordinates:   21
Number of frozen coordinates:           0
Number of harmonic constraints:         0
 
Number of geometric degrees of freedom:    21
Maximum geometric degrees of freedom:      21
 " " " " " excluding dummy atoms:          21
 
  nuclear repulsion energy.......     284.777689198 hartrees
 
 Non-default options chosen:
   SCF calculation type: DFT(m06)                    
   DFT=M06
   Transition state optimization
   Geometry will be optimized in redundant internal coordinates
   Culot/Fletcher trust radius adjustment
      initial trust radius:  0.100
   P-RFO level-shifting used
   Vibrational frequencies and related properties will be computed
      from analytic second derivatives
   IR intensities will be computed
   High accuracy cutoffs used in SCF
   Initial Hessian:  analytic 2nd derivatives
   Mixed Murtagh-Sargent/Powell Hessian-updating used
   Electrostatic potential fit to point charges on atomic centers
   Electrostatic potential fitting constrained to reproduce
     total charge:                yes
     dipole moment:               yes
     traceless quadrupole moment: no 
     traceless octapole moment:   no 
   Store KE, NAI, and pt. chg. terms separately
  
 Temporary integer options set:
     73=  2
  
  Peak memory usage:    448 Mb
  
  end of program pre
   
 Time(pre)  user:        0.0  user+sys:        0.0  wallclock:        0.3
  
  start of program onee
  
  smallest eigenvalue of S:    4.552E-05
  number of canonical orbitals.....          208
  Peak memory usage:    593 Mb
  
  end of program onee
   
 Time(onee)  user:        0.0  user+sys:        0.0  wallclock:        0.3
  
  start of program hfig
  
  initial wavefunction generated automatically from atomic wavefunctions
 
  Irreducible     Total no   No of occupied orbitals 
  representation  orbitals   Shell_1  Shell_2    ...
  No Symm          208         25
  ------------------------
  Orbital occupation/shell    1.000
 
  Peak memory usage:    532 Mb
  
  end of program hfig
   
 Time(hfig)  user:        0.0  user+sys:        0.0  wallclock:        0.3
  
  start of program probe
  
  Peak memory usage:    532 Mb
  
  end of program probe
   
 Time(probe)  user:        0.0  user+sys:        0.0  wallclock:        0.2
  
  start of program grid
  
  
   grid     grid set  grid #  grid sym
  ------    --------  ------  --------
  coarse        0        0        1
  medium        2        1        1
  fine          0        0        1
  ultrafine     4        2        1
  charge       -1        3        1
  gradient      4        2        1
  density       0        0        1
  DFT-fine    -11        4        1
  DFT-med.    -10        5        1
  DFT-grad    -12        6        1
  DFT-der2     -8        7        1
  DFT-cphf     -9        8        1
  LMP2-enrg     4        2        1
  LMP2-grad     2        1        1
  DFT-cphf2   -15        9        1
  PBF-dens      0        0        1
  plotting      0        0        1
  
   
  number of gridpoints: 
     atom        S1       O2       O3       N4       N5       H6       H7
  grid # 1      545      731      739      496      488      224      221
  grid # 2      545      731      739      496      488      225      222
  grid # 3       24     1291     1468      276      145     1251     1152
  grid # 4    22280    22280    22280    22280    22280    22280    22280
  grid # 5     2152     2152     2152     2152     2152     2152     2152
  grid # 6    21648    21648    21648    21648    21648    21648    21648
  grid # 7    65628    63040    63040    62394    62394    66806    66806
  grid # 8     3470     7568     7568     8972     8972     9848     9848
  grid # 9      802     1434     1434     3852     3852     2486     2486
   
  number of gridpoints: 
     atom        H8       H9    total
  grid # 1      223      224     3891
  grid # 2      224      225     3895
  grid # 3     1206     1214     8027
  grid # 4    22280    22280   200520
  grid # 5     2152     2152    19368
  grid # 6    21648    21648   194832
  grid # 7    66806    66806   583720
  grid # 8     9848     9848    75942
  grid # 9     2486     2486    21318
   
  Peak memory usage:    575 Mb
  
  end of program grid
   
 Time(grid)  user:        2.0  user+sys:        2.0  wallclock:        5.9
  
  start of program rwr
  
  Peak memory usage:    456 Mb
  
  end of program rwr
   
 Time(rwr)  user:        2.0  user+sys:        2.0  wallclock:        2.2
  
  start of program scf
  
 number of electrons..........         50
 number of alpha electrons....         25
 number of beta electrons.....         25
 number of orbitals, total....        208
 number of doubly-occ'd orbs..         25
 number of open shell orbs....          0
 number of occupied orbitals..         25
 number of virtual orbitals...        183
 number of hamiltonians.......          1
 number of shells.............          1
 SCF type: DFT=M06
  
       i  u  d  i  g                   
       t  p  i  c  r                                 RMS    maximum
       e  d  i  u  i                       energy  density   DIIS  
       r  t  s  t  d       total energy    change  change    error 
  
etot    1  N  N  4  M    -658.90390019473           4.2E-03  1.4E-01
etot    2  Y  Y  6  M    -659.99320118473  1.1E+00  2.3E-03  6.4E-02
etot    3  Y  Y  6  M    -660.39562277470  4.0E-01  7.3E-04  2.6E-02
etot    4  N  Y  1  U    -660.44948350222  5.4E-02  6.9E-04  1.3E-02
etot    5  Y  Y  6  M    -660.45856121791  9.1E-03  4.0E-04  5.7E-03
etot    6  N  Y  1  U    -660.45882307475  2.6E-04  1.3E-04  1.5E-03
etot    7  Y  Y  6  M    -660.45906294985  2.4E-04  2.0E-05  7.3E-04
etot    8  N  Y  1  U    -660.45908606890  2.3E-05  8.7E-06  1.3E-04
etot    9  N  Y  1  U    -660.45908772187  1.7E-06  4.9E-06  2.6E-05
etot   10  N  N  1  U    -660.45908767762 -4.4E-08  0.0E+00  0.0E+00
  
  
 Energy components, in hartrees:
   (A)  Nuclear repulsion............     284.77768919781
   (E)  Total one-electron terms.....   -1473.23135098573
   (F)    Electron-nuclear...........   -2130.63483082977
   (H)    Kinetic....................     657.40347984404
   (I)  Total two-electron terms.....     527.99457411030
   (J)    Coulomb....................     586.19545477659
   (K)    Exchange+Correlation.......     -58.20088066629
   (L)  Electronic energy............    -945.23677687543  (E+I)
   (M)  -V/T.........................       2.00464799461  (-(A+F+I)/H)
   (N)  Total energy.................    -660.45908767762  (A+L)
  
 SCFE: SCF energy: DFT(m06)      -660.45908767762 hartrees   iterations:  10
  
 
 HOMO energy:    -0.30707
 LUMO energy:    -0.05418
 
  Orbital energies (hartrees): 
   -89.31043   -19.22757   -19.22103   -14.43958   -14.43028    -8.26991
    -6.18798    -6.18718    -6.18600    -1.17281    -1.05610    -0.96167
    -0.93007    -0.67079    -0.58053    -0.56811    -0.53864    -0.51669
    -0.47515    -0.40284    -0.38467    -0.36421    -0.34857    -0.33236
    -0.30707    -0.05418    -0.03442    -0.02352    -0.01041     0.00759
     0.01988     0.02377     0.03504     0.04163     0.05751
 
  Peak memory usage:    679 Mb
  
  end of program scf
   
 Time(scf)  user:      178.0  user+sys:      179.0  wallclock:      199.5
  
  start of program cutabab2
  
  Peak memory usage:    554 Mb
  
  end of program cutabab2
   
 Time(cutabab2)  user:        0.0  user+sys:        0.0  wallclock:        0.9
  
  start of program der2a
  
  Peak memory usage:    601 Mb
  
  end of program der2a
   
 Time(der2a)  user:        0.0  user+sys:        0.0  wallclock:        0.9
  
  start of program der2b
  
  Peak memory usage:    781 Mb
  
  end of program der2b
   
 Time(der2b)  user:     2382.0  user+sys:     2382.0  wallclock:     2568.3
  
  start of program der2nda
  
 
  Peak memory usage:    599 Mb
  
  end of program der2nda
   
 Time(der2nda)  user:        0.0  user+sys:        0.0  wallclock:        0.8
  
  start of program der2ndb
  
  Peak memory usage:    571 Mb
  
  end of program der2ndb
   
 Time(der2ndb)  user:     2965.0  user+sys:     2965.0  wallclock:     3169.6
  
  start of program rwr
  
  Peak memory usage:    456 Mb
  
  end of program rwr
   
 Time(rwr)  user:        2.0  user+sys:        2.0  wallclock:        2.4
  
  start of program cphfa
  
       1  vectors produced in CPHF
  
     v    i  j  k  i  g
     e    t  c  c  c  r
     c    e  o  o  u  i
     t    r  r  r  t  d       RMS  
  
     1    1  0  0  6  M     1.6E-02
     1    2  0  0  6  M     9.9E-04
     1    3  0  0  6  M     3.3E-04
     1    4  0  0  6  M     1.3E-04
     1    5  0  0  6  M     3.4E-05
  
  
  Atomic Polar Tensors (au): Total
  =========================
  
  APT for atom S1      
  --------------------------------------
        2.1934       0.0182      -0.0486
       -0.0230       2.3134       0.0022
       -0.0450      -0.0598       2.2166
  --------------------------------------
  
  APT for atom O2      
  --------------------------------------
       -1.0508      -0.0215      -0.3535
        0.0371      -0.6417      -0.0006
       -0.2399       0.0303      -0.7717
  --------------------------------------
  
  APT for atom O3      
  --------------------------------------
       -1.0256       0.0261       0.3536
        0.0103      -0.6312      -0.0387
        0.2596      -0.0124      -0.7799
  --------------------------------------
  
  APT for atom N4      
  --------------------------------------
       -0.4475       0.0896      -0.0344
        0.0157      -0.8935       0.2964
        0.0078       0.3349      -0.7016
  --------------------------------------
  
  APT for atom N5      
  --------------------------------------
       -0.4302       0.0097       0.0452
        0.0232      -0.9129      -0.2354
        0.0066      -0.3802      -0.7796
  --------------------------------------
  
  APT for atom H6      
  --------------------------------------
        0.1469      -0.0179      -0.0018
       -0.0025       0.2862       0.0170
       -0.0013       0.0543       0.1489
  --------------------------------------
  
  APT for atom H7      
  --------------------------------------
        0.2324      -0.0749       0.0607
       -0.0419       0.1797      -0.0208
        0.0245      -0.0206       0.1884
  --------------------------------------
  
  APT for atom H8      
  --------------------------------------
        0.1678       0.0217       0.0382
       -0.0058       0.1360      -0.0141
        0.0437       0.0254       0.2620
  --------------------------------------
  
  APT for atom H9      
  --------------------------------------
        0.2129      -0.0510      -0.0594
       -0.0131       0.1637      -0.0058
       -0.0562       0.0279       0.2165
  --------------------------------------
  
  Peak memory usage:    711 Mb
  
  end of program cphfa
   
 Time(cphfa)  user:     2174.0  user+sys:     2174.0  wallclock:     2339.7
  
  start of program der1a
  
  Peak memory usage:    597 Mb
  
  end of program der1a
   
 Time(der1a)  user:        0.0  user+sys:        0.0  wallclock:        0.5
  
  start of program rwr
  
  Peak memory usage:    454 Mb
  
  end of program rwr
   
 Time(rwr)  user:        1.0  user+sys:        1.0  wallclock:        1.9
  
  start of program der1b
  
   
  forces (hartrees/bohr) : total     
   
 atom  label           x              y              z
 ---- --------   -------------  -------------  -------------
    1 S1         -9.996897E-03   6.441313E-04   3.927773E-03
    2 O2          2.084216E-03   1.091844E-02  -1.059320E-03
    3 O3          4.397742E-03  -1.062544E-02  -3.118453E-03
    4 N4          1.039547E-02   1.058031E-02   8.628292E-04
    5 N5         -8.291059E-03  -1.109433E-02  -2.884393E-03
    6 H6         -4.236587E-06   1.119096E-03  -4.012460E-03
    7 H7          2.463587E-03   9.719204E-04   2.190783E-03
    8 H8          4.175941E-04  -1.518789E-03   4.760163E-04
    9 H9         -1.215677E-03  -5.513673E-04  -6.210359E-04
 -------------   -------------  -------------  -------------
     total        2.507428E-04   4.439781E-04  -4.238260E-03
   
  Peak memory usage:    681 Mb
  
  end of program der1b
   
 Time(der1b)  user:       60.0  user+sys:       60.0  wallclock:       67.0
  
  start of program geopt
  
  geometry optimization step  1
  energy:            -660.45908767762 hartrees
  
  TS search will follow eigenvector   1 on this iteration
  
  Selected vector:  eigenvalue    -1.10876E-02

  1)  O2-S1-N4-H6( 11)  0.69233
      N5-S1-N4-H6( 17)  0.67176
  
  
  Level shifts adjusted to satisfy step-size constraints
   Step size:    0.1000667
   Cos(theta):   0.8550174
   Final level shift:  -1.5432357E-01
  
  gradient maximum:        2.9679E-02 .  (  4.5000E-04 )
  gradient rms:            1.3822E-02 .  (  3.0000E-04 )
  displacement maximum:    5.7916E-02 .  (  1.8000E-03 )
  displacement rms:        2.1836E-02 .  (  1.2000E-03 )
  
  predicted energy change:  -3.2853E-03
  step size:     0.10006
  trust radius:  0.10000
  
  molecular structure not yet converged...
  
  center of mass moved by:
     x:     3.1798E-03     y:    -4.7211E-03     z:    -2.3097E-02
  
  new geometry: 
                                   angstroms
  atom               x                 y                 z
  S1            0.0066946701      0.0013261827      0.1111294352 
  O2            1.2676216436     -0.0045929043      0.7935698329 
  O3           -1.2358329178      0.0153363889      0.8199712607 
  N4           -0.0225710536      1.2867684985     -0.9471495865 
  N5           -0.0171556555     -1.3056719046     -0.9230563706 
  H6            0.8640175074      1.7749202361     -0.8844201249 
  H7           -0.1900483002      0.9671894856     -1.8923616704 
  H8           -0.9143403094     -1.7742020085     -0.8738535455 
  H9            0.7421042512     -1.9295629134     -0.6755516726 
   
  nuclear repulsion energy.......     284.388220843 hartrees
  -------------------------------------------------
 /  end of geometry optimization iteration   1   /
 -------------------------------------------------
   
  Peak memory usage:    449 Mb
  
  end of program geopt
   
 Time(geopt)  user:        0.0  user+sys:        0.0  wallclock:        0.3
  
  start of program onee
  
  smallest eigenvalue of S:    4.713E-05
  number of canonical orbitals.....          208
  Peak memory usage:    593 Mb
  
  end of program onee
   
 Time(onee)  user:        0.0  user+sys:        0.0  wallclock:        0.3
  
  start of program probe
  
  Peak memory usage:    532 Mb
  
  end of program probe
   
 Time(probe)  user:        0.0  user+sys:        0.0  wallclock:        0.2
  
  start of program grid
  
  
   grid     grid set  grid #  grid sym
  ------    --------  ------  --------
  coarse        0        0        1
  medium        2        1        1
  fine          0        0        1
  ultrafine     4        2        1
  charge       -1        3        1
  gradient      4        2        1
  density       0        0        1
  DFT-fine    -11        4        1
  DFT-med.    -10        5        1
  DFT-grad    -12        6        1
  DFT-der2     -8        7        1
  DFT-cphf     -9        8        1
  LMP2-enrg     4        2        1
  LMP2-grad     2        1        1
  DFT-cphf2   -15        9        1
  PBF-dens      0        0        1
  plotting      0        0        1
  
   
  number of gridpoints: 
     atom        S1       O2       O3       N4       N5       H6       H7
  grid # 1      548      732      737      499      487      223      222
  grid # 2      548      732      737      499      487      224      223
  grid # 3       22     1294     1448      286      150     1241     1173
  grid # 4    22280    22280    22280    22280    22280    22280    22280
  grid # 5     2152     2152     2152     2152     2152     2152     2152
  grid # 6    21648    21648    21648    21648    21648    21648    21648
  grid # 7    65628    63040    63040    62394    62394    66806    66806
  grid # 8     3470     7568     7568     8972     8972     9848     9848
  grid # 9      802     1434     1434     3852     3852     2486     2486
   
  number of gridpoints: 
     atom        H8       H9    total
  grid # 1      222      224     3894
  grid # 2      223      225     3898
  grid # 3     1204     1238     8056
  grid # 4    22280    22280   200520
  grid # 5     2152     2152    19368
  grid # 6    21648    21648   194832
  grid # 7    66806    66806   583720
  grid # 8     9848     9848    75942
  grid # 9     2486     2486    21318
   
  Peak memory usage:    575 Mb
  
  end of program grid
   
 Time(grid)  user:        2.0  user+sys:        2.0  wallclock:        3.6
  
  start of program rwr
  
  Peak memory usage:    456 Mb
  
  end of program rwr
   
 Time(rwr)  user:        2.0  user+sys:        2.0  wallclock:        2.3
  
  start of program scf
  
  
       i  u  d  i  g                   
       t  p  i  c  r                                 RMS    maximum
       e  d  i  u  i                       energy  density   DIIS  
       r  t  s  t  d       total energy    change  change    error 
  
etot    1  N  N  1  U    -660.45662158535           3.3E-04  6.9E-03
etot    2  Y  Y  6  M    -660.46186163460  5.2E-03  6.8E-05  1.1E-03
etot    3  N  Y  1  U    -660.46210848237  2.5E-04  2.0E-05  3.4E-04
etot    4  N  Y  1  U    -660.46212572190  1.7E-05  8.4E-06  2.1E-04
etot    5  N  Y  1  U    -660.46213003892  4.3E-06  2.6E-06  6.6E-05
etot    6  N  N  1  U    -660.46213062707  5.9E-07  0.0E+00  0.0E+00
  
  
 Energy components, in hartrees:
   (A)  Nuclear repulsion............     284.38822084334
   (E)  Total one-electron terms.....   -1472.45131568514
   (F)    Electron-nuclear...........   -2129.83226207217
   (H)    Kinetic....................     657.38094638703
   (I)  Total two-electron terms.....     527.60096421473
   (J)    Coulomb....................     585.79845299625
   (K)    Exchange+Correlation.......     -58.19748878152
   (L)  Electronic energy............    -944.85035147040  (E+I)
   (M)  -V/T.........................       2.00468706046  (-(A+F+I)/H)
   (N)  Total energy.................    -660.46213062707  (A+L)
  
 SCFE: SCF energy: DFT(m06)      -660.46213062707 hartrees   iterations:   6
  
 
 HOMO energy:    -0.30881
 LUMO energy:    -0.05359
 
  Orbital energies (hartrees): 
   -89.31101   -19.22839   -19.22057   -14.43925   -14.43183    -8.27030
    -6.18836    -6.18767    -6.18636    -1.17342    -1.05806    -0.95765
    -0.93045    -0.67059    -0.58025    -0.56605    -0.53879    -0.51696
    -0.47579    -0.40061    -0.38555    -0.36654    -0.35138    -0.33017
    -0.30881    -0.05359    -0.03444    -0.02261    -0.01102     0.00831
     0.01948     0.02391     0.03584     0.04312     0.05904
 
  Peak memory usage:    679 Mb
  
  end of program scf
   
 Time(scf)  user:      135.0  user+sys:      135.0  wallclock:      144.5
  
  start of program der1a
  
  Peak memory usage:    597 Mb
  
  end of program der1a
   
 Time(der1a)  user:        0.0  user+sys:        0.0  wallclock:        0.4
  
  start of program rwr
  
  Peak memory usage:    454 Mb
  
  end of program rwr
   
 Time(rwr)  user:        1.0  user+sys:        1.0  wallclock:        1.9
  
  start of program der1b
  
   
  forces (hartrees/bohr) : total     
   
 atom  label           x              y              z
 ---- --------   -------------  -------------  -------------
    1 S1         -7.480168E-03  -1.787440E-03  -1.689726E-03
    2 O2          7.597514E-04   3.541886E-03   3.155945E-05
    3 O3          5.876734E-04  -1.205581E-03   8.882521E-04
    4 N4          5.162124E-03   3.898158E-03   1.182165E-03
    5 N5          3.801121E-04  -2.958879E-03  -3.133187E-03
    6 H6          1.480266E-04  -3.981909E-04  -1.987216E-03
    7 H7          8.218712E-05   4.789423E-04  -3.652140E-05
    8 H8          6.497290E-04  -6.590117E-04   1.821556E-03
    9 H9         -1.403928E-04  -3.097742E-04  -1.359864E-03
 -------------   -------------  -------------  -------------
     total        1.490426E-04   6.001091E-04  -4.282981E-03
   
  Peak memory usage:    681 Mb
  
  end of program der1b
   
 Time(der1b)  user:       59.0  user+sys:       59.0  wallclock:       67.6
  
  start of program geopt
  
  geometry optimization step  2
  energy:            -660.46213062707 hartrees
  
  TS search will follow eigenvector   1 on this iteration
  
  Selected vector:  eigenvalue    -1.35419E-02

  1)  O2-S1-N4-H6( 11)  0.68822
      N5-S1-N4-H6( 17)  0.68440
  
  
  Level shifts adjusted to satisfy step-size constraints
   Step size:    0.1414797
   Cos(theta):   0.6454231
   Final level shift:  -3.7752900E-02
  
  energy change:          -3.0429E-03 .  (  5.0000E-05 )
  gradient maximum:        7.5679E-03 .  (  4.5000E-04 )
  gradient rms:            2.9966E-03 .  (  3.0000E-04 )
  displacement maximum:    1.1538E-01 .  (  1.8000E-03 )
  displacement rms:        3.0873E-02 .  (  1.2000E-03 )
  
  predicted energy change:  -6.8420E-04
  step size:     0.14148
  trust radius:  0.14142
  
  molecular structure not yet converged...
  
  center of mass moved by:
     x:    -2.2332E-02     y:     4.1464E-04     z:    -1.0980E-02
  
  new geometry: 
                                   angstroms
  atom               x                 y                 z
  S1            0.0040741214     -0.0003199752      0.1086219413 
  O2            1.2636755922      0.0112415527      0.7926826464 
  O3           -1.2326619927      0.0125050384      0.8214616189 
  N4            0.0011031184      1.2889950048     -0.9501031913 
  N5           -0.0419401379     -1.3188190606     -0.9188790867 
  H6            0.8747653682      1.7932294728     -0.8451500382 
  H7           -0.1200262268      0.9705052049     -1.9028410601 
  H8           -0.9106394682     -1.8239829842     -0.7780541003 
  H9            0.7684961740     -1.9038178658     -0.7471695002 
   
  nuclear repulsion energy.......     284.194814278 hartrees
  -------------------------------------------------
 /  end of geometry optimization iteration   2   /
 -------------------------------------------------
   
  Peak memory usage:    450 Mb
  
  end of program geopt
   
 Time(geopt)  user:        0.0  user+sys:        0.0  wallclock:        0.2
  
  start of program onee
  
  smallest eigenvalue of S:    4.769E-05
  number of canonical orbitals.....          208
  Peak memory usage:    593 Mb
  
  end of program onee
   
 Time(onee)  user:        0.0  user+sys:        0.0  wallclock:        0.4
  
  start of program probe
  
  Peak memory usage:    532 Mb
  
  end of program probe
   
 Time(probe)  user:        0.0  user+sys:        0.0  wallclock:        0.2
  
  start of program grid
  
  
   grid     grid set  grid #  grid sym
  ------    --------  ------  --------
  coarse        0        0        1
  medium        2        1        1
  fine          0        0        1
  ultrafine     4        2        1
  charge       -1        3        1
  gradient      4        2        1
  density       0        0        1
  DFT-fine    -11        4        1
  DFT-med.    -10        5        1
  DFT-grad    -12        6        1
  DFT-der2     -8        7        1
  DFT-cphf     -9        8        1
  LMP2-enrg     4        2        1
  LMP2-grad     2        1        1
  DFT-cphf2   -15        9        1
  PBF-dens      0        0        1
  plotting      0        0        1
  
   
  number of gridpoints: 
     atom        S1       O2       O3       N4       N5       H6       H7
  grid # 1      549      735      737      499      486      223      223
  grid # 2      549      735      737      499      486      224      224
  grid # 3       22     1290     1441      286      142     1237     1184
  grid # 4    22280    22280    22280    22280    22280    22280    22280
  grid # 5     2152     2152     2152     2152     2152     2152     2152
  grid # 6    21648    21648    21648    21648    21648    21648    21648
  grid # 7    65628    63040    63040    62394    62394    66806    66806
  grid # 8     3470     7568     7568     8972     8972     9848     9848
  grid # 9      802     1434     1434     3852     3852     2486     2486
   
  number of gridpoints: 
     atom        H8       H9    total
  grid # 1      223      224     3899
  grid # 2      224      225     3903
  grid # 3     1223     1242     8067
  grid # 4    22280    22280   200520
  grid # 5     2152     2152    19368
  grid # 6    21648    21648   194832
  grid # 7    66806    66806   583720
  grid # 8     9848     9848    75942
  grid # 9     2486     2486    21318
   
  Peak memory usage:    575 Mb
  
  end of program grid
   
 Time(grid)  user:        3.0  user+sys:        3.0  wallclock:        4.2
  
  start of program rwr
  
  Peak memory usage:    456 Mb
  
  end of program rwr
   
 Time(rwr)  user:        2.0  user+sys:        2.0  wallclock:        2.5
  
  start of program scf
  
  
       i  u  d  i  g                   
       t  p  i  c  r                                 RMS    maximum
       e  d  i  u  i                       energy  density   DIIS  
       r  t  s  t  d       total energy    change  change    error 
  
etot    1  N  N  1  U    -660.45979428521           2.1E-04  4.0E-03
etot    2  Y  Y  6  M    -660.46251353701  2.7E-03  5.0E-05  8.2E-04
etot    3  N  Y  1  U    -660.46263418282  1.2E-04  1.5E-05  4.0E-04
etot    4  N  Y  1  U    -660.46265317937  1.9E-05  6.5E-06  1.8E-04
etot    5  N  Y  1  U    -660.46265684203  3.7E-06  2.5E-06  5.4E-05
etot    6  N  N  1  U    -660.46265725937  4.2E-07  0.0E+00  0.0E+00
  
  
 Energy components, in hartrees:
   (A)  Nuclear repulsion............     284.19481427786
   (E)  Total one-electron terms.....   -1472.07467810488
   (F)    Electron-nuclear...........   -2129.44692168514
   (H)    Kinetic....................     657.37224358026
   (I)  Total two-electron terms.....     527.41720656765
   (J)    Coulomb....................     585.61231702193
   (K)    Exchange+Correlation.......     -58.19511045429
   (L)  Electronic energy............    -944.65747153723  (E+I)
   (M)  -V/T.........................       2.00470116241  (-(A+F+I)/H)
   (N)  Total energy.................    -660.46265725937  (A+L)
  
 SCFE: SCF energy: DFT(m06)      -660.46265725937 hartrees   iterations:   6
  
 
 HOMO energy:    -0.30876
 LUMO energy:    -0.05346
 
  Orbital energies (hartrees): 
   -89.31101   -19.22678   -19.22113   -14.44019   -14.43175    -8.27027
    -6.18832    -6.18764    -6.18633    -1.17376    -1.05840    -0.95617
    -0.92975    -0.67024    -0.57983    -0.56361    -0.54088    -0.51582
    -0.47541    -0.40039    -0.38608    -0.36733    -0.35000    -0.33101
    -0.30876    -0.05346    -0.03444    -0.02172    -0.01252     0.00933
     0.02038     0.02325     0.03549     0.04370     0.06032
 
  Peak memory usage:    679 Mb
  
  end of program scf
   
 Time(scf)  user:      140.0  user+sys:      140.0  wallclock:      153.8
  
  start of program der1a
  
  Peak memory usage:    597 Mb
  
  end of program der1a
   
 Time(der1a)  user:        0.0  user+sys:        0.0  wallclock:        0.4
  
  start of program rwr
  
  Peak memory usage:    454 Mb
  
  end of program rwr
   
 Time(rwr)  user:        1.0  user+sys:        1.0  wallclock:        2.1
  
  start of program der1b
  
   
  forces (hartrees/bohr) : total     
   
 atom  label           x              y              z
 ---- --------   -------------  -------------  -------------
    1 S1         -1.926732E-03  -8.188208E-04  -4.081412E-03
    2 O2          2.143267E-03   7.997655E-04   9.751724E-04
    3 O3         -3.062665E-03  -5.529099E-04   1.324610E-03
    4 N4          2.288316E-03   9.334540E-04  -1.787336E-06
    5 N5         -1.948701E-05   5.395307E-04  -1.402617E-03
    6 H6         -1.017818E-04  -9.833705E-04  -1.496950E-03
    7 H7         -3.865055E-04   5.630180E-04   6.833938E-05
    8 H8          2.137320E-03  -3.427546E-04   1.041312E-03
    9 H9         -9.412716E-04   1.865186E-04  -1.061621E-03
 -------------   -------------  -------------  -------------
     total        1.304598E-04   3.244310E-04  -4.634953E-03
   
  Peak memory usage:    681 Mb
  
  end of program der1b
   
 Time(der1b)  user:       61.0  user+sys:       61.0  wallclock:       66.3
  
  start of program geopt
  
  geometry optimization step  3
  energy:            -660.46265725937 hartrees
  
  TS search will follow eigenvector   1 on this iteration
  
  Selected vector:  eigenvalue    -1.22343E-02

  1)  O2-S1-N4-H6( 11) -0.67059
      N5-S1-N4-H6( 17) -0.65949
  
  
  Level shifts adjusted to satisfy step-size constraints
   Step size:    0.1415054
   Cos(theta):   0.7058016
   Final level shift:  -2.1490689E-02
  
  energy change:          -5.2663E-04 .  (  5.0000E-05 )
  gradient maximum:        3.7867E-03 .  (  4.5000E-04 )
  gradient rms:            1.5547E-03 .  (  3.0000E-04 )
  displacement maximum:    8.3416E-02 .  (  1.8000E-03 )
  displacement rms:        3.0879E-02 .  (  1.2000E-03 )
  
  predicted energy change:  -9.6573E-05
  step size:     0.14151
  trust radius:  0.14142
  
  molecular structure not yet converged...
  
  center of mass moved by:
     x:    -1.3276E-02     y:    -1.4416E-03     z:    -5.6028E-03
  
  new geometry: 
                                   angstroms
  atom               x                 y                 z
  S1            0.0044410613      0.0001764484      0.1080187606 
  O2            1.2671138449      0.0115560664      0.7912170495 
  O3           -1.2292107870      0.0155905334      0.8311778385 
  N4            0.0093938018      1.2822173449     -0.9616956716 
  N5           -0.0639539863     -1.3176779451     -0.9174339220 
  H6            0.8561651308      1.8219455086     -0.8089051955 
  H7           -0.0436364751      0.9502703341     -1.9177370974 
  H8           -0.9000222042     -1.8486351528     -0.7097682687 
  H9            0.7697824140     -1.8790398014     -0.8076219463 
   
  nuclear repulsion energy.......     283.984894362 hartrees
  -------------------------------------------------
 /  end of geometry optimization iteration   3   /
 -------------------------------------------------
   
  Peak memory usage:    450 Mb
  
  end of program geopt
   
 Time(geopt)  user:        0.0  user+sys:        0.0  wallclock:        0.3
  
  start of program onee
  
  smallest eigenvalue of S:    4.740E-05
  number of canonical orbitals.....          208
  Peak memory usage:    593 Mb
  
  end of program onee
   
 Time(onee)  user:        0.0  user+sys:        0.0  wallclock:        0.5
  
  start of program probe
  
  Peak memory usage:    532 Mb
  
  end of program probe
   
 Time(probe)  user:        0.0  user+sys:        0.0  wallclock:        0.3
  
  start of program grid
  
  
   grid     grid set  grid #  grid sym
  ------    --------  ------  --------
  coarse        0        0        1
  medium        2        1        1
  fine          0        0        1
  ultrafine     4        2        1
  charge       -1        3        1
  gradient      4        2        1
  density       0        0        1
  DFT-fine    -11        4        1
  DFT-med.    -10        5        1
  DFT-grad    -12        6        1
  DFT-der2     -8        7        1
  DFT-cphf     -9        8        1
  LMP2-enrg     4        2        1
  LMP2-grad     2        1        1
  DFT-cphf2   -15        9        1
  PBF-dens      0        0        1
  plotting      0        0        1
  
   
  number of gridpoints: 
     atom        S1       O2       O3       N4       N5       H6       H7
  grid # 1      549      733      738      499      486      223      223
  grid # 2      549      733      738      499      486      224      223
  grid # 3       23     1297     1437      292      138     1234     1181
  grid # 4    22280    22280    22280    22280    22280    22280    22280
  grid # 5     2152     2152     2152     2152     2152     2152     2152
  grid # 6    21648    21648    21648    21648    21648    21648    21648
  grid # 7    65628    63040    63040    62394    62394    66806    66806
  grid # 8     3470     7568     7568     8972     8972     9848     9848
  grid # 9      802     1434     1434     3852     3852     2486     2486
   
  number of gridpoints: 
     atom        H8       H9    total
  grid # 1      224      224     3899
  grid # 2      225      225     3902
  grid # 3     1219     1235     8056
  grid # 4    22280    22280   200520
  grid # 5     2152     2152    19368
  grid # 6    21648    21648   194832
  grid # 7    66806    66806   583720
  grid # 8     9848     9848    75942
  grid # 9     2486     2486    21318
   
  Peak memory usage:    575 Mb
  
  end of program grid
   
 Time(grid)  user:        3.0  user+sys:        3.0  wallclock:        3.6
  
  start of program rwr
  
  Peak memory usage:    456 Mb
  
  end of program rwr
   
 Time(rwr)  user:        2.0  user+sys:        2.0  wallclock:        2.3
  
  start of program scf
  
  
       i  u  d  i  g                   
       t  p  i  c  r                                 RMS    maximum
       e  d  i  u  i                       energy  density   DIIS  
       r  t  s  t  d       total energy    change  change    error 
  
etot    1  N  N  1  U    -660.46051029420           1.8E-04  3.2E-03
etot    2  Y  Y  6  M    -660.46263941945  2.1E-03  4.6E-05  7.0E-04
etot    3  N  Y  1  U    -660.46273416579  9.5E-05  1.5E-05  4.9E-04
etot    4  N  Y  1  U    -660.46275650205  2.2E-05  6.0E-06  1.7E-04
etot    5  N  Y  1  U    -660.46275989254  3.4E-06  2.6E-06  5.5E-05
etot    6  N  N  1  U    -660.46276025232  3.6E-07  0.0E+00  0.0E+00
  
  
 Energy components, in hartrees:
   (A)  Nuclear repulsion............     283.98489436170
   (E)  Total one-electron terms.....   -1471.65333586997
   (F)    Electron-nuclear...........   -2129.01384669250
   (H)    Kinetic....................     657.36051082252
   (I)  Total two-electron terms.....     527.20568125596
   (J)    Coulomb....................     585.39764353948
   (K)    Exchange+Correlation.......     -58.19196228352
   (L)  Electronic energy............    -944.44765461402  (E+I)
   (M)  -V/T.........................       2.00471925128  (-(A+F+I)/H)
   (N)  Total energy.................    -660.46276025232  (A+L)
  
 SCFE: SCF energy: DFT(m06)      -660.46276025232 hartrees   iterations:   6
  
 
 HOMO energy:    -0.30843
 LUMO energy:    -0.05357
 
  Orbital energies (hartrees): 
   -89.31151   -19.22605   -19.22143   -14.44100   -14.43230    -8.27064
    -6.18873    -6.18802    -6.18669    -1.17251    -1.05691    -0.95723
    -0.93021    -0.67123    -0.58029    -0.56330    -0.54171    -0.51421
    -0.47547    -0.40078    -0.38641    -0.36734    -0.34843    -0.33176
    -0.30843    -0.05357    -0.03456    -0.02076    -0.01399     0.01004
     0.02117     0.02252     0.03556     0.04405     0.05935
 
  Peak memory usage:    679 Mb
  
  end of program scf
   
 Time(scf)  user:      140.0  user+sys:      140.0  wallclock:      151.0
  
  start of program der1a
  
  Peak memory usage:    597 Mb
  
  end of program der1a
   
 Time(der1a)  user:        0.0  user+sys:        0.0  wallclock:        0.4
  
  start of program rwr
  
  Peak memory usage:    454 Mb
  
  end of program rwr
   
 Time(rwr)  user:        1.0  user+sys:        1.0  wallclock:        2.0
  
  start of program der1b
  
   
  forces (hartrees/bohr) : total     
   
 atom  label           x              y              z
 ---- --------   -------------  -------------  -------------
    1 S1         -1.714862E-03  -7.768241E-04  -1.211864E-03
    2 O2          2.490139E-04   4.104948E-04   9.916866E-05
    3 O3         -1.046647E-04   2.114025E-04  -7.447166E-04
    4 N4          2.016731E-03   4.639549E-04  -9.494541E-04
    5 N5         -4.695218E-04   2.725422E-03  -1.753322E-03
    6 H6         -1.181707E-03  -1.487287E-03  -1.679788E-03
    7 H7         -2.509485E-04   9.416208E-04   1.371665E-03
    8 H8         -2.508914E-04  -1.275255E-03   6.536437E-04
    9 H9          1.614549E-03  -7.652419E-04  -4.736113E-04
 -------------   -------------  -------------  -------------
     total       -9.230155E-05   4.482873E-04  -4.688279E-03
   
  Peak memory usage:    681 Mb
  
  end of program der1b
   
 Time(der1b)  user:       60.0  user+sys:       60.0  wallclock:       64.2
  
  start of program geopt
  
  geometry optimization step  4
  energy:            -660.46276025232 hartrees
  
  TS search will follow eigenvector   1 on this iteration
  
  Selected vector:  eigenvalue    -3.59094E-03

  1)  O2-S1-N4-H6( 11) -0.58996
      N5-S1-N4-H6( 17) -0.56674
      N4-S1-N5-H8( 14)  0.38575
      H6-S1-N4-H7( 20) -0.27763
            N4-H7( 16)  0.15621
         S1-N4-H7(  5) -0.12546
  
  
  Level shifts adjusted to satisfy step-size constraints
   Step size:    0.2000614
   Cos(theta):   0.8337380
   Final level shift:  -1.6808229E-02
  
  energy change:          -1.0299E-04 .  (  5.0000E-05 )
  gradient maximum:        2.7789E-03 .  (  4.5000E-04 )
  gradient rms:            1.1194E-03 .  (  3.0000E-04 )
  displacement maximum:    1.3328E-01 .  (  1.8000E-03 )
  displacement rms:        4.3657E-02 .  (  1.2000E-03 )
  
  predicted energy change:   3.2673E-04
  step size:     0.20006
  trust radius:  0.20000
  
  molecular structure not yet converged...
  
  center of mass moved by:
     x:    -6.6987E-03     y:    -1.1548E-03     z:     2.6422E-03
  
  new geometry: 
                                   angstroms
  atom               x                 y                 z
  S1            0.0073294186     -0.0002198570      0.1095081848 
  O2            1.2783342803      0.0028406983      0.7786428332 
  O3           -1.2097597396      0.0354445847      0.8575855702 
  N4           -0.0069046531      1.2667660600     -0.9858777656 
  N5           -0.0923845063     -1.3145550007     -0.9117787292 
  H6            0.7861816158      1.8714654013     -0.7691649736 
  H7            0.0813330191      0.8968511992     -1.9348983227 
  H8           -0.9059167054     -1.8573499072     -0.6761833904 
  H9            0.7637625331     -1.8593381852     -0.8731647396 
   
  nuclear repulsion energy.......     283.903606635 hartrees
  -------------------------------------------------
 /  end of geometry optimization iteration   4   /
 -------------------------------------------------
   
  Peak memory usage:    450 Mb
  
  end of program geopt
   
 Time(geopt)  user:        0.0  user+sys:        0.0  wallclock:        0.2
  
  start of program onee
  
  smallest eigenvalue of S:    4.719E-05
  number of canonical orbitals.....          208
  Peak memory usage:    593 Mb
  
  end of program onee
   
 Time(onee)  user:        0.0  user+sys:        0.0  wallclock:        0.3
  
  start of program probe
  
  Peak memory usage:    532 Mb
  
  end of program probe
   
 Time(probe)  user:        0.0  user+sys:        0.0  wallclock:        0.2
  
  start of program grid
  
  
   grid     grid set  grid #  grid sym
  ------    --------  ------  --------
  coarse        0        0        1
  medium        2        1        1
  fine          0        0        1
  ultrafine     4        2        1
  charge       -1        3        1
  gradient      4        2        1
  density       0        0        1
  DFT-fine    -11        4        1
  DFT-med.    -10        5        1
  DFT-grad    -12        6        1
  DFT-der2     -8        7        1
  DFT-cphf     -9        8        1
  LMP2-enrg     4        2        1
  LMP2-grad     2        1        1
  DFT-cphf2   -15        9        1
  PBF-dens      0        0        1
  plotting      0        0        1
  
   
  number of gridpoints: 
     atom        S1       O2       O3       N4       N5       H6       H7
  grid # 1      549      734      738      504      481      223      224
  grid # 2      549      734      738      504      481      224      224
  grid # 3       20     1311     1439      305      127     1240     1170
  grid # 4    22280    22280    22280    22280    22280    22280    22280
  grid # 5     2152     2152     2152     2152     2152     2152     2152
  grid # 6    21648    21648    21648    21648    21648    21648    21648
  grid # 7    65628    63040    63040    62394    62394    66806    66806
  grid # 8     3470     7568     7568     8972     8972     9848     9848
  grid # 9      802     1434     1434     3852     3852     2486     2486
   
  number of gridpoints: 
     atom        H8       H9    total
  grid # 1      225      224     3902
  grid # 2      226      225     3905
  grid # 3     1237     1235     8084
  grid # 4    22280    22280   200520
  grid # 5     2152     2152    19368
  grid # 6    21648    21648   194832
  grid # 7    66806    66806   583720
  grid # 8     9848     9848    75942
  grid # 9     2486     2486    21318
   
  Peak memory usage:    575 Mb
  
  end of program grid
   
 Time(grid)  user:        2.0  user+sys:        2.0  wallclock:        3.7
  
  start of program rwr
  
  Peak memory usage:    456 Mb
  
  end of program rwr
   
 Time(rwr)  user:        2.0  user+sys:        2.0  wallclock:        2.4
  
  start of program scf
  
  
       i  u  d  i  g                   
       t  p  i  c  r                                 RMS    maximum
       e  d  i  u  i                       energy  density   DIIS  
       r  t  s  t  d       total energy    change  change    error 
  
etot    1  N  N  1  U    -660.45724896463           2.7E-04  4.8E-03
etot    2  Y  Y  6  M    -660.46210925286  4.9E-03  7.7E-05  1.1E-03
etot    3  Y  Y  6  M    -660.46227721434  1.7E-04  2.7E-05  1.1E-03
etot    4  N  Y  1  U    -660.46239002162  1.1E-04  1.1E-05  2.0E-04
etot    5  N  Y  1  U    -660.46239690792  6.9E-06  5.7E-06  9.2E-05
etot    6  N  Y  1  U    -660.46239800254  1.1E-06  1.9E-06  5.8E-05
etot    7  N  N  1  U    -660.46239834241  3.4E-07  0.0E+00  0.0E+00
  
  
 Energy components, in hartrees:
   (A)  Nuclear repulsion............     283.90360663500
   (E)  Total one-electron terms.....   -1471.50168338633
   (F)    Electron-nuclear...........   -2128.84421932293
   (H)    Kinetic....................     657.34253593659
   (I)  Total two-electron terms.....     527.13567840893
   (J)    Coulomb....................     585.32201059200
   (K)    Exchange+Correlation.......     -58.18633218308
   (L)  Electronic energy............    -944.36600497741  (E+I)
   (M)  -V/T.........................       2.00474617454  (-(A+F+I)/H)
   (N)  Total energy.................    -660.46239834241  (A+L)
  
 SCFE: SCF energy: DFT(m06)      -660.46239834241 hartrees   iterations:   7
  
 
 HOMO energy:    -0.30805
 LUMO energy:    -0.05402
 
  Orbital energies (hartrees): 
   -89.31119   -19.22572   -19.22108   -14.44172   -14.43377    -8.27039
    -6.18851    -6.18771    -6.18643    -1.17229    -1.05611    -0.95831
    -0.92900    -0.67113    -0.57872    -0.56570    -0.54046    -0.51005
    -0.47661    -0.40083    -0.38806    -0.36682    -0.34747    -0.33208
    -0.30805    -0.05402    -0.03473    -0.01970    -0.01571     0.01059
     0.02166     0.02207     0.03549     0.04442     0.05844
 
  Peak memory usage:    679 Mb
  
  end of program scf
   
 Time(scf)  user:      146.0  user+sys:      146.0  wallclock:      155.7
  
  start of program der1a
  
  Peak memory usage:    597 Mb
  
  end of program der1a
   
 Time(der1a)  user:        0.0  user+sys:        0.0  wallclock:        0.5
  
  start of program rwr
  
  Peak memory usage:    454 Mb
  
  end of program rwr
   
 Time(rwr)  user:        1.0  user+sys:        1.0  wallclock:        1.9
  
  start of program der1b
  
   
  forces (hartrees/bohr) : total     
   
 atom  label           x              y              z
 ---- --------   -------------  -------------  -------------
    1 S1         -9.887155E-04  -3.071084E-04  -1.296826E-03
    2 O2          4.854804E-04   3.490811E-04  -8.676452E-04
    3 O3         -1.157247E-03  -1.126561E-04  -9.439435E-05
    4 N4          5.622442E-03  -9.566886E-04  -6.200973E-03
    5 N5          6.830980E-03   3.581970E-03  -3.230492E-03
    6 H6         -3.829957E-03  -2.703254E-03  -2.173720E-03
    7 H7         -7.288287E-04   3.614773E-03   7.428057E-03
    8 H8         -3.853774E-03  -4.076625E-03   1.697117E-03
    9 H9         -2.449224E-03   1.064469E-03   2.051712E-04
 -------------   -------------  -------------  -------------
     total       -6.884318E-05   4.539615E-04  -4.533706E-03
   
  Peak memory usage:    681 Mb
  
  end of program der1b
   
 Time(der1b)  user:       61.0  user+sys:       61.0  wallclock:       66.8
  
  start of program geopt
  
  geometry optimization step  5
  energy:            -660.46239834241 hartrees
  
  TS search will follow eigenvector   1 on this iteration
  
  Selected vector:  eigenvalue    -3.59094E-03

  1)  O2-S1-N4-H6( 11) -0.58996
      N5-S1-N4-H6( 17) -0.56674
      N4-S1-N5-H8( 14)  0.38575
      H6-S1-N4-H7( 20) -0.27763
            N4-H7( 16)  0.15621
         S1-N4-H7(  5) -0.12546
  
  
  Level shifts adjusted to satisfy step-size constraints
   Step size:    0.2832223
   Cos(theta):   0.4411363
   Final level shift:  -1.0539393E-02
  
  energy change:           3.6191E-04 .  (  5.0000E-05 )
  gradient maximum:        8.7260E-03 .  (  4.5000E-04 )
  gradient rms:            2.7186E-03 .  (  3.0000E-04 )
  displacement maximum:    1.9740E-01 .  (  1.8000E-03 )
  displacement rms:        6.1804E-02 .  (  1.2000E-03 )
  
  predicted energy change:   4.0869E-04
  step size:     0.28322
  trust radius:  0.28284
  
  molecular structure not yet converged...
  
  center of mass moved by:
     x:     1.2292E-02     y:    -9.9738E-03     z:    -1.3082E-02
  
  new geometry: 
                                   angstroms
  atom               x                 y                 z
  S1            0.0109016113      0.0001723775      0.1103899031 
  O2            1.2960545638     -0.0061845774      0.7532591711 
  O3           -1.1798542349      0.0566268819      0.8984574021 
  N4           -0.0361356646      1.2454558315     -1.0146651563 
  N5           -0.1220508158     -1.3118838217     -0.9077862712 
  H6            0.6491545620      1.9492236921     -0.7167965269 
  H7            0.2377977882      0.8668910581     -1.9283923077 
  H8           -0.9277827345     -1.8471763293     -0.6512668905 
  H9            0.7153513989     -1.8637163658     -0.8862261950 
   
  nuclear repulsion energy.......     283.868093268 hartrees
  -------------------------------------------------
 /  end of geometry optimization iteration   5   /
 -------------------------------------------------
   
  Peak memory usage:    450 Mb
  
  end of program geopt
   
 Time(geopt)  user:        0.0  user+sys:        0.0  wallclock:        0.3
  
  start of program onee
  
  smallest eigenvalue of S:    4.925E-05
  number of canonical orbitals.....          208
  Peak memory usage:    593 Mb
  
  end of program onee
   
 Time(onee)  user:        0.0  user+sys:        0.0  wallclock:        0.4
  
  start of program probe
  
  Peak memory usage:    532 Mb
  
  end of program probe
   
 Time(probe)  user:        0.0  user+sys:        0.0  wallclock:        0.2
  
  start of program grid
  
  
   grid     grid set  grid #  grid sym
  ------    --------  ------  --------
  coarse        0        0        1
  medium        2        1        1
  fine          0        0        1
  ultrafine     4        2        1
  charge       -1        3        1
  gradient      4        2        1
  density       0        0        1
  DFT-fine    -11        4        1
  DFT-med.    -10        5        1
  DFT-grad    -12        6        1
  DFT-der2     -8        7        1
  DFT-cphf     -9        8        1
  LMP2-enrg     4        2        1
  LMP2-grad     2        1        1
  DFT-cphf2   -15        9        1
  PBF-dens      0        0        1
  plotting      0        0        1
  
   
  number of gridpoints: 
     atom        S1       O2       O3       N4       N5       H6       H7
  grid # 1      546      734      738      514      478      223      223
  grid # 2      546      734      738      514      478      223      224
  grid # 3       19     1325     1437      321      138     1242     1144
  grid # 4    22280    22280    22280    22280    22280    22280    22280
  grid # 5     2152     2152     2152     2152     2152     2152     2152
  grid # 6    21648    21648    21648    21648    21648    21648    21648
  grid # 7    65628    63040    63040    62394    62394    66806    66806
  grid # 8     3470     7568     7568     8972     8972     9848     9848
  grid # 9      802     1434     1434     3852     3852     2486     2486
   
  number of gridpoints: 
     atom        H8       H9    total
  grid # 1      221      222     3899
  grid # 2      222      223     3902
  grid # 3     1235     1213     8074
  grid # 4    22280    22280   200520
  grid # 5     2152     2152    19368
  grid # 6    21648    21648   194832
  grid # 7    66806    66806   583720
  grid # 8     9848     9848    75942
  grid # 9     2486     2486    21318
   
  Peak memory usage:    575 Mb
  
  end of program grid
   
 Time(grid)  user:        2.0  user+sys:        2.0  wallclock:        3.6
  
  start of program rwr
  
  Peak memory usage:    456 Mb
  
  end of program rwr
   
 Time(rwr)  user:        2.0  user+sys:        2.0  wallclock:        2.4
  
  start of program scf
  
  
       i  u  d  i  g                   
       t  p  i  c  r                                 RMS    maximum
       e  d  i  u  i                       energy  density   DIIS  
       r  t  s  t  d       total energy    change  change    error 
  
etot    1  N  N  1  U    -660.45350507394           3.5E-04  6.0E-03
etot    2  Y  Y  6  M    -660.46166941434  8.2E-03  9.8E-05  1.5E-03
etot    3  N  Y  1  U    -660.46201222966  3.4E-04  3.2E-05  9.9E-04
etot    4  N  Y  1  U    -660.46214083776  1.3E-04  1.2E-05  2.5E-04
etot    5  N  Y  1  U    -660.46215042762  9.6E-06  5.2E-06  1.3E-04
etot    6  N  Y  1  U    -660.46215209785  1.7E-06  1.8E-06  5.5E-05
etot    7  N  N  1  U    -660.46215253896  4.4E-07  0.0E+00  0.0E+00
  
  
 Energy components, in hartrees:
   (A)  Nuclear repulsion............     283.86809326798
   (E)  Total one-electron terms.....   -1471.41193132148
   (F)    Electron-nuclear...........   -2128.76841441565
   (H)    Kinetic....................     657.35648309416
   (I)  Total two-electron terms.....     527.08168551455
   (J)    Coulomb....................     585.26997516782
   (K)    Exchange+Correlation.......     -58.18828965328
   (L)  Electronic energy............    -944.33024580694  (E+I)
   (M)  -V/T.........................       2.00472448287  (-(A+F+I)/H)
   (N)  Total energy.................    -660.46215253896  (A+L)
  
 SCFE: SCF energy: DFT(m06)      -660.46215253896 hartrees   iterations:   7
  
 
 HOMO energy:    -0.30820
 LUMO energy:    -0.05394
 
  Orbital energies (hartrees): 
   -89.31135   -19.22529   -19.22179   -14.44102   -14.43555    -8.27059
    -6.18871    -6.18789    -6.18663    -1.17232    -1.05538    -0.96107
    -0.92956    -0.67264    -0.57800    -0.56805    -0.53921    -0.50653
    -0.47851    -0.40092    -0.39057    -0.36724    -0.34723    -0.33257
    -0.30820    -0.05394    -0.03499    -0.01866    -0.01653     0.01056
     0.02082     0.02234     0.03588     0.04428     0.05898
 
  Peak memory usage:    679 Mb
  
  end of program scf
   
 Time(scf)  user:      165.0  user+sys:      165.0  wallclock:      181.2
  
  start of program der1a
  
  Peak memory usage:    597 Mb
  
  end of program der1a
   
 Time(der1a)  user:        0.0  user+sys:        0.0  wallclock:        0.4
  
  start of program rwr
  
  Peak memory usage:    454 Mb
  
  end of program rwr
   
 Time(rwr)  user:        1.0  user+sys:        1.0  wallclock:        1.9
  
  start of program der1b
  
   
  forces (hartrees/bohr) : total     
   
 atom  label           x              y              z
 ---- --------   -------------  -------------  -------------
    1 S1         -2.204616E-04   1.486137E-04  -1.087925E-03
    2 O2          8.981474E-04  -3.447427E-04  -2.244670E-03
    3 O3         -1.669536E-03   5.322481E-04  -8.444593E-04
    4 N4          8.786438E-03   1.773431E-04  -5.528499E-03
    5 N5          1.629135E-03   1.030358E-02  -3.587196E-03
    6 H6         -6.154032E-03  -5.251462E-03  -3.442937E-03
    7 H7         -2.191663E-03   4.702973E-03   9.094688E-03
    8 H8         -8.629827E-03  -5.832724E-03   2.284082E-03
    9 H9          7.300910E-03  -4.183617E-03   7.343809E-04
 -------------   -------------  -------------  -------------
     total       -2.508882E-04   2.522165E-04  -4.622536E-03
   
  Peak memory usage:    681 Mb
  
  end of program der1b
   
 Time(der1b)  user:       62.0  user+sys:       62.0  wallclock:       68.1
  
  start of program geopt
  
  geometry optimization step  6
  energy:            -660.46215253896 hartrees
  
  TS search will follow eigenvector   1 on this iteration
  
  Selected vector:  eigenvalue    -3.59094E-03

  1)  O2-S1-N4-H6( 11) -0.58996
      N5-S1-N4-H6( 17) -0.56674
      N4-S1-N5-H8( 14)  0.38575
      H6-S1-N4-H7( 20) -0.27763
            N4-H7( 16)  0.15621
         S1-N4-H7(  5) -0.12546
  
  
  Level shifts adjusted to satisfy step-size constraints
   Step size:    0.1418765
   Cos(theta):   0.4730190
   Final level shift:  -2.6901904E-02
  
  energy change:           2.4580E-04 .  (  5.0000E-05 )
  gradient maximum:        1.0886E-02 .  (  4.5000E-04 )
  gradient rms:            4.5486E-03 .  (  3.0000E-04 )
  displacement maximum:    9.6555E-02 .  (  1.8000E-03 )
  displacement rms:        3.0960E-02 .  (  1.2000E-03 )
  
  predicted energy change:  -2.4789E-04
  step size:     0.14188
  trust radius:  0.14142
  
  molecular structure not yet converged...
  
  center of mass moved by:
     x:     3.1701E-03     y:    -4.5639E-03     z:    -9.4687E-03
  
  new geometry: 
                                   angstroms
  atom               x                 y                 z
  S1            0.0139172139      0.0004896500      0.1112287291 
  O2            1.3057657124     -0.0199919570      0.7401211623 
  O3           -1.1705458239      0.0781525464      0.9078955458 
  N4           -0.0448513080      1.2348077072     -1.0262010135 
  N5           -0.1412845617     -1.3125788105     -0.8974795516 
  H6            0.5792005744      1.9757515411     -0.6989180138 
  H7            0.3189914738      0.8662058422     -1.9071423776 
  H8           -0.9453039695     -1.8545491937     -0.6213860814 
  H9            0.7124508593     -1.8571408289     -0.9060486082 
   
  nuclear repulsion energy.......     283.910392139 hartrees
  -------------------------------------------------
 /  end of geometry optimization iteration   6   /
 -------------------------------------------------
   
  Peak memory usage:    450 Mb
  
  end of program geopt
   
 Time(geopt)  user:        0.0  user+sys:        0.0  wallclock:        0.2
  
  start of program onee
  
  smallest eigenvalue of S:    5.030E-05
  number of canonical orbitals.....          208
  Peak memory usage:    593 Mb
  
  end of program onee
   
 Time(onee)  user:        0.0  user+sys:        0.0  wallclock:        0.3
  
  start of program probe
  
  Peak memory usage:    532 Mb
  
  end of program probe
   
 Time(probe)  user:        0.0  user+sys:        0.0  wallclock:        0.2
  
  start of program grid
  
  
   grid     grid set  grid #  grid sym
  ------    --------  ------  --------
  coarse        0        0        1
  medium        2        1        1
  fine          0        0        1
  ultrafine     4        2        1
  charge       -1        3        1
  gradient      4        2        1
  density       0        0        1
  DFT-fine    -11        4        1
  DFT-med.    -10        5        1
  DFT-grad    -12        6        1
  DFT-der2     -8        7        1
  DFT-cphf     -9        8        1
  LMP2-enrg     4        2        1
  LMP2-grad     2        1        1
  DFT-cphf2   -15        9        1
  PBF-dens      0        0        1
  plotting      0        0        1
  
   
  number of gridpoints: 
     atom        S1       O2       O3       N4       N5       H6       H7
  grid # 1      547      734      738      513      483      223      224
  grid # 2      547      734      738      513      483      223      225
  grid # 3       16     1326     1436      328      142     1244     1130
  grid # 4    22280    22280    22280    22280    22280    22280    22280
  grid # 5     2152     2152     2152     2152     2152     2152     2152
  grid # 6    21648    21648    21648    21648    21648    21648    21648
  grid # 7    65628    63040    63040    62394    62394    66806    66806
  grid # 8     3470     7568     7568     8972     8972     9848     9848
  grid # 9      802     1434     1434     3852     3852     2486     2486
   
  number of gridpoints: 
     atom        H8       H9    total
  grid # 1      225      224     3911
  grid # 2      226      225     3914
  grid # 3     1250     1208     8080
  grid # 4    22280    22280   200520
  grid # 5     2152     2152    19368
  grid # 6    21648    21648   194832
  grid # 7    66806    66806   583720
  grid # 8     9848     9848    75942
  grid # 9     2486     2486    21318
   
  Peak memory usage:    575 Mb
  
  end of program grid
   
 Time(grid)  user:        2.0  user+sys:        2.0  wallclock:        3.8
  
  start of program rwr
  
  Peak memory usage:    456 Mb
  
  end of program rwr
   
 Time(rwr)  user:        2.0  user+sys:        2.0  wallclock:        2.5
  
  start of program scf
  
  
       i  u  d  i  g                   
       t  p  i  c  r                                 RMS    maximum
       e  d  i  u  i                       energy  density   DIIS  
       r  t  s  t  d       total energy    change  change    error 
  
etot    1  N  N  1  U    -660.46031552801           1.9E-04  2.8E-03
etot    2  Y  Y  6  M    -660.46243394204  2.1E-03  5.3E-05  6.9E-04
etot    3  Y  Y  6  M    -660.46249091853  5.7E-05  1.9E-05  6.7E-04
etot    4  N  Y  1  U    -660.46256342313  7.3E-05  7.5E-06  1.3E-04
etot    5  N  Y  1  U    -660.46256608676  2.7E-06  3.4E-06  7.7E-05
etot    6  N  N  1  U    -660.46256657863  4.9E-07  0.0E+00  0.0E+00
  
  
 Energy components, in hartrees:
   (A)  Nuclear repulsion............     283.91039213876
   (E)  Total one-electron terms.....   -1471.50481532799
   (F)    Electron-nuclear...........   -2128.84978671860
   (H)    Kinetic....................     657.34497139061
   (I)  Total two-electron terms.....     527.13185661060
   (J)    Coulomb....................     585.31690860720
   (K)    Exchange+Correlation.......     -58.18505199659
   (L)  Electronic energy............    -944.37295871739  (E+I)
   (M)  -V/T.........................       2.00474270790  (-(A+F+I)/H)
   (N)  Total energy.................    -660.46256657863  (A+L)
  
 SCFE: SCF energy: DFT(m06)      -660.46256657863 hartrees   iterations:   6
  
 
 HOMO energy:    -0.30877
 LUMO energy:    -0.05411
 
  Orbital energies (hartrees): 
   -89.31121   -19.22500   -19.22193   -14.44207   -14.43544    -8.27045
    -6.18855    -6.18775    -6.18651    -1.17220    -1.05536    -0.96045
    -0.92981    -0.67224    -0.57739    -0.56705    -0.53953    -0.50557
    -0.47885    -0.40003    -0.39160    -0.36684    -0.34769    -0.33160
    -0.30877    -0.05411    -0.03509    -0.01942    -0.01573     0.01054
     0.02036     0.02245     0.03589     0.04418     0.06000
 
  Peak memory usage:    679 Mb
  
  end of program scf
   
 Time(scf)  user:      117.0  user+sys:      117.0  wallclock:      127.4
  
  start of program der1a
  
  Peak memory usage:    597 Mb
  
  end of program der1a
   
 Time(der1a)  user:        0.0  user+sys:        0.0  wallclock:        0.4
  
  start of program rwr
  
  Peak memory usage:    454 Mb
  
  end of program rwr
   
 Time(rwr)  user:        1.0  user+sys:        1.0  wallclock:        1.9
  
  start of program der1b
  
   
  forces (hartrees/bohr) : total     
   
 atom  label           x              y              z
 ---- --------   -------------  -------------  -------------
    1 S1         -2.690707E-03  -1.995968E-04  -1.019617E-03
    2 O2          1.100479E-03   7.035790E-05  -2.172750E-03
    3 O3         -5.574758E-04   4.428767E-04  -9.946309E-05
    4 N4          7.090451E-03  -6.188770E-04  -3.075669E-03
    5 N5          3.968018E-03   3.071345E-03  -2.763633E-03
    6 H6         -3.834799E-03  -2.579320E-03  -1.940586E-03
    7 H7         -2.060360E-03   3.153461E-03   4.894001E-03
    8 H8         -2.520386E-03  -2.578000E-03   5.989396E-04
    9 H9         -7.065225E-04  -7.139701E-04   1.124204E-03
 -------------   -------------  -------------  -------------
     total       -2.113024E-04   4.827666E-05  -4.454573E-03
   
  Peak memory usage:    681 Mb
  
  end of program der1b
   
 Time(der1b)  user:       60.0  user+sys:       60.0  wallclock:       65.7
  
  start of program geopt
  
  geometry optimization step  7
  energy:            -660.46256657863 hartrees
  
  TS search will follow eigenvector   1 on this iteration
  
  Selected vector:  eigenvalue    -3.59094E-03

  1)  O2-S1-N4-H6( 11) -0.58996
      N5-S1-N4-H6( 17) -0.56674
      N4-S1-N5-H8( 14)  0.38575
      H6-S1-N4-H7( 20) -0.27763
            N4-H7( 16)  0.15621
         S1-N4-H7(  5) -0.12546
  
  
  Level shifts adjusted to satisfy step-size constraints
   Step size:    0.0710927
   Cos(theta):   0.5978861
   Final level shift:  -3.0529614E-02
  
  energy change:          -4.1404E-04 .  (  5.0000E-05 )
  gradient maximum:        6.5114E-03 .  (  4.5000E-04 )
  gradient rms:            2.7629E-03 .  (  3.0000E-04 )
  displacement maximum:    4.2014E-02 .  (  1.8000E-03 )
  displacement rms:        1.5514E-02 .  (  1.2000E-03 )
  
  predicted energy change:  -3.3300E-04
  step size:     0.07109
  trust radius:  0.07071
  
  molecular structure not yet converged...
  
  center of mass moved by:
     x:     1.1860E-02     y:    -3.5476E-03     z:    -1.1353E-02
  
  new geometry: 
                                   angstroms
  atom               x                 y                 z
  S1            0.0106988142     -0.0000365789      0.1103493158 
  O2            1.3103402606     -0.0197503780      0.7242661567 
  O3           -1.1676338750      0.0777994320      0.9164441863 
  N4           -0.0501310092      1.2375510311     -1.0178779543 
  N5           -0.1325898723     -1.3152499134     -0.8994741547 
  H6            0.5603097700      1.9836390233     -0.6870413501 
  H7            0.3037426248      0.8886150537     -1.9020709664 
  H8           -0.9549622872     -1.8421386123     -0.6465418251 
  H9            0.6920836162     -1.8823874216     -0.8419150511 
   
  nuclear repulsion energy.......     284.054201439 hartrees
  -------------------------------------------------
 /  end of geometry optimization iteration   7   /
 -------------------------------------------------
   
  Peak memory usage:    450 Mb
  
  end of program geopt
   
 Time(geopt)  user:        0.0  user+sys:        0.0  wallclock:        0.2
  
  start of program onee
  
  smallest eigenvalue of S:    5.072E-05
  number of canonical orbitals.....          208
  Peak memory usage:    593 Mb
  
  end of program onee
   
 Time(onee)  user:        0.0  user+sys:        0.0  wallclock:        0.4
  
  start of program probe
  
  Peak memory usage:    532 Mb
  
  end of program probe
   
 Time(probe)  user:        0.0  user+sys:        0.0  wallclock:        0.2
  
  start of program grid
  
  
   grid     grid set  grid #  grid sym
  ------    --------  ------  --------
  coarse        0        0        1
  medium        2        1        1
  fine          0        0        1
  ultrafine     4        2        1
  charge       -1        3        1
  gradient      4        2        1
  density       0        0        1
  DFT-fine    -11        4        1
  DFT-med.    -10        5        1
  DFT-grad    -12        6        1
  DFT-der2     -8        7        1
  DFT-cphf     -9        8        1
  LMP2-enrg     4        2        1
  LMP2-grad     2        1        1
  DFT-cphf2   -15        9        1
  PBF-dens      0        0        1
  plotting      0        0        1
  
   
  number of gridpoints: 
     atom        S1       O2       O3       N4       N5       H6       H7
  grid # 1      546      734      738      510      486      223      223
  grid # 2      546      734      738      510      486      223      224
  grid # 3       15     1317     1437      316      145     1243     1141
  grid # 4    22280    22280    22280    22280    22280    22280    22280
  grid # 5     2152     2152     2152     2152     2152     2152     2152
  grid # 6    21648    21648    21648    21648    21648    21648    21648
  grid # 7    65628    63040    63040    62394    62394    66806    66806
  grid # 8     3470     7568     7568     8972     8972     9848     9848
  grid # 9      802     1434     1434     3852     3852     2486     2486
   
  number of gridpoints: 
     atom        H8       H9    total
  grid # 1      224      222     3906
  grid # 2      225      223     3909
  grid # 3     1242     1206     8062
  grid # 4    22280    22280   200520
  grid # 5     2152     2152    19368
  grid # 6    21648    21648   194832
  grid # 7    66806    66806   583720
  grid # 8     9848     9848    75942
  grid # 9     2486     2486    21318
   
  Peak memory usage:    575 Mb
  
  end of program grid
   
 Time(grid)  user:        2.0  user+sys:        2.0  wallclock:        3.6
  
  start of program rwr
  
  Peak memory usage:    456 Mb
  
  end of program rwr
   
 Time(rwr)  user:        2.0  user+sys:        2.0  wallclock:        2.4
  
  start of program scf
  
  
       i  u  d  i  g                   
       t  p  i  c  r                                 RMS    maximum
       e  d  i  u  i                       energy  density   DIIS  
       r  t  s  t  d       total energy    change  change    error 
  
etot    1  N  N  1  U    -660.46178794698           1.3E-04  2.1E-03
etot    2  Y  Y  6  M    -660.46272011831  9.3E-04  3.9E-05  6.3E-04
etot    3  N  Y  1  U    -660.46273944941  1.9E-05  1.6E-05  5.8E-04
etot    4  N  Y  1  U    -660.46278598949  4.7E-05  4.9E-06  9.2E-05
etot    5  N  N  1  U    -660.46278723958  1.3E-06  0.0E+00  0.0E+00
  
  
 Energy components, in hartrees:
   (A)  Nuclear repulsion............     284.05420143869
   (E)  Total one-electron terms.....   -1471.76954076129
   (F)    Electron-nuclear...........   -2129.14948163934
   (H)    Kinetic....................     657.37994087805
   (I)  Total two-electron terms.....     527.25255208303
   (J)    Coulomb....................     585.44712796921
   (K)    Exchange+Correlation.......     -58.19457588618
   (L)  Electronic energy............    -944.51698867826  (E+I)
   (M)  -V/T.........................       2.00468959603  (-(A+F+I)/H)
   (N)  Total energy.................    -660.46278723958  (A+L)
  
 SCFE: SCF energy: DFT(m06)      -660.46278723958 hartrees   iterations:   5
  
 
 HOMO energy:    -0.30798
 LUMO energy:    -0.05344
 
  Orbital energies (hartrees): 
   -89.31169   -19.22437   -19.22293   -14.44156   -14.43344    -8.27090
    -6.18900    -6.18823    -6.18694    -1.17238    -1.05559    -0.96130
    -0.93169    -0.67370    -0.57924    -0.56605    -0.54011    -0.50654
    -0.47922    -0.40070    -0.39175    -0.36797    -0.34737    -0.33251
    -0.30798    -0.05344    -0.03507    -0.01877    -0.01594     0.01043
     0.02077     0.02189     0.03633     0.04426     0.06094
 
  Peak memory usage:    679 Mb
  
  end of program scf
   
 Time(scf)  user:      113.0  user+sys:      113.0  wallclock:      125.5
  
  start of program der1a
  
  Peak memory usage:    597 Mb
  
  end of program der1a
   
 Time(der1a)  user:        0.0  user+sys:        0.0  wallclock:        0.4
  
  start of program rwr
  
  Peak memory usage:    454 Mb
  
  end of program rwr
   
 Time(rwr)  user:        1.0  user+sys:        1.0  wallclock:        1.9
  
  start of program der1b
  
   
  forces (hartrees/bohr) : total     
   
 atom  label           x              y              z
 ---- --------   -------------  -------------  -------------
    1 S1          7.086869E-04   3.477699E-04  -5.286157E-04
    2 O2          1.499746E-04  -4.922103E-04  -9.208945E-04
    3 O3         -1.486551E-04   1.336319E-04  -7.234262E-04
    4 N4          1.724540E-03   6.756985E-04  -4.326942E-04
    5 N5         -4.947924E-03   6.326188E-03  -2.106771E-03
    6 H6         -2.487945E-03  -1.269580E-03  -9.391592E-04
    7 H7          2.519920E-04   3.289342E-04   2.514803E-04
    8 H8         -3.564628E-03  -1.358791E-03   1.665955E-04
    9 H9          8.100197E-03  -4.637294E-03   7.177619E-04
 -------------   -------------  -------------  -------------
     total       -2.137615E-04   5.434735E-05  -4.515723E-03
   
  Peak memory usage:    681 Mb
  
  end of program der1b
   
 Time(der1b)  user:       62.0  user+sys:       62.0  wallclock:       66.5
  
  start of program geopt
  
  geometry optimization step  8
  energy:            -660.46278723958 hartrees
  
  TS search will follow eigenvector   1 on this iteration
  
  Selected vector:  eigenvalue    -5.51154E-03

  1)  O2-S1-N4-H6( 11)  0.68797
      N5-S1-N4-H6( 17)  0.68774
  
  
  Level shifts adjusted to satisfy step-size constraints
   Step size:    0.0354444
   Cos(theta):   0.7780774
   Final level shift:  -9.1467359E-02
  
  energy change:          -2.2066E-04 .  (  5.0000E-05 )
  gradient maximum:        9.3170E-03 .  (  4.5000E-04 )
  gradient rms:            2.3993E-03 .  (  3.0000E-04 )
  displacement maximum:    2.3698E-02 .  (  1.8000E-03 )
  displacement rms:        7.7346E-03 .  (  1.2000E-03 )
  
  predicted energy change:  -1.6838E-04
  step size:     0.03544
  trust radius:  0.03536
  
  molecular structure not yet converged...
  
  center of mass moved by:
     x:    -3.2856E-03     y:     7.9477E-04     z:     1.0037E-04
  
  new geometry: 
                                   angstroms
  atom               x                 y                 z
  S1            0.0114449832      0.0000111257      0.1103748102 
  O2            1.3094371347     -0.0219682914      0.7267520881 
  O3           -1.1706896406      0.0784261662      0.9104722968 
  N4           -0.0462680535      1.2396158584     -1.0149397752 
  N5           -0.1348785879     -1.3152997839     -0.8984157578 
  H6            0.5692139167      1.9779339304     -0.6905282088 
  H7            0.3000312062      0.8901382318     -1.9003061876 
  H8           -0.9591530242     -1.8462062433     -0.6362913063 
  H9            0.7083677225     -1.8783945969     -0.8514574124 
   
  nuclear repulsion energy.......     284.054837552 hartrees
  -------------------------------------------------
 /  end of geometry optimization iteration   8   /
 -------------------------------------------------
   
  Peak memory usage:    450 Mb
  
  end of program geopt
   
 Time(geopt)  user:        0.0  user+sys:        0.0  wallclock:        0.2
  
  start of program onee
  
  smallest eigenvalue of S:    5.068E-05
  number of canonical orbitals.....          208
  Peak memory usage:    593 Mb
  
  end of program onee
   
 Time(onee)  user:        0.0  user+sys:        0.0  wallclock:        0.4
  
  start of program probe
  
  Peak memory usage:    532 Mb
  
  end of program probe
   
 Time(probe)  user:        0.0  user+sys:        0.0  wallclock:        0.3
  
  start of program grid
  
  
   grid     grid set  grid #  grid sym
  ------    --------  ------  --------
  coarse        0        0        1
  medium        2        1        1
  fine          0        0        1
  ultrafine     4        2        1
  charge       -1        3        1
  gradient      4        2        1
  density       0        0        1
  DFT-fine    -11        4        1
  DFT-med.    -10        5        1
  DFT-grad    -12        6        1
  DFT-der2     -8        7        1
  DFT-cphf     -9        8        1
  LMP2-enrg     4        2        1
  LMP2-grad     2        1        1
  DFT-cphf2   -15        9        1
  PBF-dens      0        0        1
  plotting      0        0        1
  
   
  number of gridpoints: 
     atom        S1       O2       O3       N4       N5       H6       H7
  grid # 1      547      734      738      508      487      223      223
  grid # 2      547      734      738      508      487      223      224
  grid # 3       15     1317     1433      316      147     1243     1137
  grid # 4    22280    22280    22280    22280    22280    22280    22280
  grid # 5     2152     2152     2152     2152     2152     2152     2152
  grid # 6    21648    21648    21648    21648    21648    21648    21648
  grid # 7    65628    63040    63040    62394    62394    66806    66806
  grid # 8     3470     7568     7568     8972     8972     9848     9848
  grid # 9      802     1434     1434     3852     3852     2486     2486
   
  number of gridpoints: 
     atom        H8       H9    total
  grid # 1      224      223     3907
  grid # 2      225      224     3910
  grid # 3     1250     1214     8072
  grid # 4    22280    22280   200520
  grid # 5     2152     2152    19368
  grid # 6    21648    21648   194832
  grid # 7    66806    66806   583720
  grid # 8     9848     9848    75942
  grid # 9     2486     2486    21318
   
  Peak memory usage:    575 Mb
  
  end of program grid
   
 Time(grid)  user:        3.0  user+sys:        3.0  wallclock:        3.8
  
  start of program rwr
  
  Peak memory usage:    456 Mb
  
  end of program rwr
   
 Time(rwr)  user:        2.0  user+sys:        2.0  wallclock:        2.5
  
  start of program scf
  
  
       i  u  d  i  g                   
       t  p  i  c  r                                 RMS    maximum
       e  d  i  u  i                       energy  density   DIIS  
       r  t  s  t  d       total energy    change  change    error 
  
etot    1  N  N  1  U    -660.46269294708           5.6E-05  7.7E-04
etot    2  Y  Y  6  M    -660.46281236389  1.2E-04  1.9E-05  3.9E-04
etot    3  N  Y  1  U    -660.46281448839  2.1E-06  6.9E-06  3.1E-04
etot    4  N  Y  1  U    -660.46282408558  9.6E-06  1.8E-06  3.9E-05
etot    5  N  N  1  U    -660.46282427520  1.9E-07  0.0E+00  0.0E+00
  
  
 Energy components, in hartrees:
   (A)  Nuclear repulsion............     284.05483755151
   (E)  Total one-electron terms.....   -1471.78566745815
   (F)    Electron-nuclear...........   -2129.14600284515
   (H)    Kinetic....................     657.36033538699
   (I)  Total two-electron terms.....     527.26800563144
   (J)    Coulomb....................     585.45775276780
   (K)    Exchange+Correlation.......     -58.18974713637
   (L)  Electronic energy............    -944.51766182671  (E+I)
   (M)  -V/T.........................       2.00471961681  (-(A+F+I)/H)
   (N)  Total energy.................    -660.46282427520  (A+L)
  
 SCFE: SCF energy: DFT(m06)      -660.46282427520 hartrees   iterations:   5
  
 
 HOMO energy:    -0.30813
 LUMO energy:    -0.05362
 
  Orbital energies (hartrees): 
   -89.31109   -19.22504   -19.22240   -14.44325   -14.43299    -8.27039
    -6.18848    -6.18772    -6.18643    -1.17238    -1.05577    -0.96011
    -0.93119    -0.67267    -0.57884    -0.56458    -0.54065    -0.50648
    -0.47902    -0.40055    -0.39163    -0.36776    -0.34748    -0.33199
    -0.30813    -0.05362    -0.03505    -0.01899    -0.01591     0.01053
     0.02074     0.02197     0.03620     0.04428     0.06094
 
  Peak memory usage:    679 Mb
  
  end of program scf
   
 Time(scf)  user:      112.0  user+sys:      112.0  wallclock:      120.7
  
  start of program der1a
  
  Peak memory usage:    597 Mb
  
  end of program der1a
   
 Time(der1a)  user:        0.0  user+sys:        0.0  wallclock:        0.4
  
  start of program rwr
  
  Peak memory usage:    454 Mb
  
  end of program rwr
   
 Time(rwr)  user:        1.0  user+sys:        1.0  wallclock:        2.2
  
  start of program der1b
  
   
  forces (hartrees/bohr) : total     
   
 atom  label           x              y              z
 ---- --------   -------------  -------------  -------------
    1 S1         -4.869860E-04   8.529688E-06  -8.647158E-04
    2 O2          6.459064E-04  -2.844359E-04  -5.481586E-04
    3 O3         -2.118565E-04   1.152825E-04   1.778299E-04
    4 N4         -1.744140E-04  -1.513224E-03  -1.381422E-03
    5 N5          3.734174E-04  -8.534433E-04  -1.028227E-03
    6 H6         -2.591929E-04   1.624545E-03   6.249105E-04
    7 H7          3.578434E-04  -1.667744E-04  -9.583679E-04
    8 H8          1.430696E-03   5.389028E-04  -1.006821E-03
    9 H9         -1.827138E-03   5.532104E-04   4.121656E-04
 -------------   -------------  -------------  -------------
     total       -1.517247E-04   2.259244E-05  -4.572806E-03
   
  Peak memory usage:    681 Mb
  
  end of program der1b
   
 Time(der1b)  user:       62.0  user+sys:       62.0  wallclock:       67.8
  
  start of program geopt
  
  geometry optimization step  9
  energy:            -660.46282427520 hartrees
  
  TS search will follow eigenvector   1 on this iteration
  
[...]
                                             deloc 154:  0.03  0.02  0.02  0.04
                                             deloc 221: -0.01  0.02  0.02  0.03
                                             deloc  31:  0.00 -0.01  0.02  0.02

  13. LP ( 1) O 3            14.20 -0.61-10.13 17.45    14.22 -0.62-10.14 17.48
                                             deloc  27:  0.08  0.00 -0.05  0.09
                                             deloc  29: -0.01  0.06  0.04  0.07
                                             deloc  28:  0.00 -0.05  0.04  0.07
                                             deloc  26: -0.04  0.00 -0.05  0.07
                                             deloc  36:  0.02  0.00 -0.03  0.04
                                             deloc  40: -0.03  0.00  0.02  0.04
                                             deloc  34:  0.02  0.00  0.01  0.02

  14. LP ( 2) O 3             7.25 -0.17 -5.48  9.09     9.94 -0.27 -7.27 12.31
                                             deloc  28: -1.09 -0.08  0.80  1.35
                                             deloc  35: -0.45  0.02  0.19  0.49
                                             deloc  26: -0.34 -0.07  0.19  0.39
                                             deloc  34: -0.27  0.16  0.12  0.34
                                             deloc  29: -0.23  0.05  0.24  0.34
                                             deloc  37: -0.16  0.03  0.08  0.18
                                             deloc  36: -0.01 -0.05  0.07  0.09
                                             deloc  31: -0.02 -0.02  0.04  0.04
                                             deloc 125: -0.02 -0.01  0.02  0.03
                                             deloc  39: -0.01  0.03 -0.01  0.03
                                             deloc 124: -0.02  0.01  0.00  0.02

  15. LP ( 3) O 3             7.29 -0.07 -5.24  8.97    10.07 -0.34 -7.08 12.32
                                             deloc  26: -0.95  0.13  0.52  1.09
                                             deloc  29: -0.79  0.14  0.54  0.97
                                             deloc  34: -0.43 -0.08  0.20  0.48
                                             deloc  37: -0.18  0.07  0.24  0.31
                                             deloc  36: -0.07  0.03  0.19  0.20
                                             deloc  35: -0.13 -0.09 -0.02  0.16
                                             deloc  33: -0.05  0.07  0.07  0.11
                                             deloc  12: -0.11  0.01  0.02  0.11
                                             deloc 154: -0.03  0.03  0.04  0.06
                                             deloc  39: -0.01 -0.02 -0.02  0.03
                                             deloc 209:  0.01  0.02  0.01  0.02

  16. LP ( 1) N 4             4.58-12.14  7.52 15.00     4.90-13.13  8.19 16.23
                                             deloc  27: -0.11  0.30 -0.21  0.38
                                             deloc  36: -0.13  0.26 -0.17  0.33
                                             deloc  26: -0.06  0.15 -0.18  0.24
                                             deloc  35:  0.01  0.04 -0.04  0.06
                                             deloc 196: -0.02  0.02  0.05  0.06
                                             deloc  29:  0.02  0.05 -0.02  0.06
                                             deloc  12: -0.02  0.03 -0.04  0.05
                                             deloc  38: -0.01  0.05  0.01  0.05
                                             deloc  31: -0.01 -0.01 -0.04  0.05
                                             deloc 184: -0.03 -0.03  0.00  0.04
                                             deloc  28: -0.01 -0.03  0.02  0.04
                                             deloc  32:  0.00  0.03  0.00  0.03
                                             deloc  30:  0.01  0.03  0.01  0.03
                                             deloc  14:  0.00  0.02 -0.02  0.03
                                             deloc  42:  0.03 -0.01  0.00  0.03
                                             deloc  11:  0.00  0.01 -0.02  0.02

  17. LP ( 1) N 5             1.45  8.40 11.86 14.61     1.58  9.29 12.84 15.92
                                             deloc  38: -0.03 -0.27 -0.30  0.41
                                             deloc  28: -0.03 -0.15 -0.25  0.30
                                             deloc  26: -0.09 -0.16 -0.14  0.23
                                             deloc  27:  0.04 -0.07 -0.06  0.10
                                             deloc  35:  0.00  0.00 -0.06  0.07
                                             deloc  14:  0.01 -0.04 -0.05  0.06
                                             deloc  11: -0.02 -0.04 -0.04  0.06
                                             deloc 208:  0.04  0.04 -0.02  0.06
                                             deloc  30: -0.01 -0.05  0.00  0.05
                                             deloc 220: -0.04  0.03 -0.01  0.05
                                             deloc  33:  0.03 -0.02 -0.01  0.04
                                             deloc  32: -0.03 -0.01  0.00  0.03
                                             deloc 126:  0.00 -0.02 -0.02  0.03
                                             deloc  41:  0.00 -0.01  0.03  0.03
                                             deloc  15:  0.01 -0.01 -0.02  0.02

  18. BD ( 1) S 1- O 2       -7.82  0.07 -4.96  9.26    -7.98  0.06 -5.15  9.49
                                             deloc  28: -0.03 -0.26  0.20  0.33
                                             deloc  29: -0.01  0.25  0.15  0.29
                                             deloc  27:  0.13 -0.01 -0.14  0.19
                                             deloc  11:  0.01  0.02 -0.03  0.04

  19. BD ( 1) S 1- O 3        7.24 -0.36 -5.56  9.14     7.39 -0.40 -5.74  9.37
                                             deloc  29:  0.04  0.26  0.16  0.31
                                             deloc  28:  0.02 -0.21  0.15  0.26
                                             deloc  26: -0.14  0.00 -0.13  0.19
                                             deloc  15: -0.01 -0.02 -0.02  0.03

  20. BD ( 1) S 1- N 4       -0.41 -7.25  5.73  9.25    -0.33 -7.49  5.79  9.47
                                             deloc  29:  0.02  0.24  0.20  0.31
                                             deloc  26: -0.27 -0.04 -0.13  0.30
                                             deloc  27:  0.22 -0.05 -0.13  0.26
                                             deloc  30: -0.05 -0.04 -0.03  0.07
                                             deloc  31: -0.01  0.04  0.06  0.07
                                             deloc  14:  0.02  0.00 -0.01  0.02

  21. BD ( 1) S 1- N 5        0.49  8.04  4.89  9.42     0.51  8.21  5.00  9.63
                                             deloc  28:  0.00 -0.24  0.22  0.33
                                             deloc  27:  0.24  0.03 -0.14  0.28
                                             deloc  26: -0.23  0.05 -0.12  0.26
                                             deloc  32:  0.06  0.03 -0.03  0.07
                                             deloc  33: -0.07  0.02 -0.02  0.07
                                             deloc  30:  0.00 -0.02  0.00  0.02

  22. BD ( 1) N 4- H 6       -4.26-14.25  6.80 16.36    -4.29-14.46  7.02 16.64
                                             deloc  28:  0.00  0.06 -0.05  0.08
                                             deloc  29:  0.00  0.06 -0.03  0.07
                                             deloc  26:  0.02  0.06 -0.03  0.06
                                             deloc  38:  0.00  0.04 -0.01  0.04
                                             deloc  36:  0.01  0.03 -0.03  0.04
                                             deloc  16:  0.02 -0.03 -0.01  0.04
                                             deloc  27:  0.01  0.01 -0.02  0.03
                                             deloc  39:  0.00 -0.01  0.02  0.02

  23. BD ( 1) N 4- H 7       -0.93 -8.40 13.62 16.03    -0.97 -8.63 13.82 16.32
                                             deloc  27:  0.03  0.05 -0.06  0.09
                                             deloc  38: -0.01  0.05 -0.07  0.08
                                             deloc  28:  0.00  0.06 -0.05  0.08
                                             deloc  29:  0.00  0.01 -0.05  0.05
                                             deloc  41:  0.00 -0.01  0.04  0.04
                                             deloc  16:  0.03 -0.01  0.01  0.03
                                             deloc  26: -0.02  0.01 -0.01  0.03

  24. BD ( 1) N 5- H 8        5.48 14.18  6.05 16.37     5.48 14.42  6.21 16.63
                                             deloc  29:  0.00 -0.06 -0.05  0.07
                                             deloc  27: -0.03 -0.05 -0.03  0.07
                                             deloc  28:  0.00 -0.06 -0.02  0.06
                                             deloc  37: -0.02 -0.03 -0.03  0.04
                                             deloc  26: -0.01 -0.01 -0.03  0.04
                                             deloc  17:  0.01  0.00  0.02  0.03
                                             deloc  39:  0.00  0.01  0.02  0.02
                                             deloc  38:  0.00 -0.02  0.00  0.02

  25. BD ( 1) N 5- H 9       -4.04 14.10  7.32 16.39    -4.01 14.36  7.46 16.67
                                             deloc  29: -0.01 -0.06 -0.05  0.07
                                             deloc  26:  0.02 -0.06 -0.03  0.07
                                             deloc  27:  0.01 -0.04 -0.05  0.06
                                             deloc  37:  0.01 -0.04 -0.03  0.05
                                             deloc  28: -0.01 -0.03 -0.01  0.03
                                             deloc  39:  0.00  0.02  0.02  0.03
                                             deloc  17: -0.01  0.00  0.03  0.03
                                             deloc 209: -0.02  0.00  0.01  0.02

   Residual nuclear charge   -0.34 -0.18 -6.82  6.83    -0.34 -0.18 -6.82  6.83
                            ----------------------------------------------------
         Net dipole moment   -1.03  1.76  4.99  5.39    -0.60  1.25  0.38  1.44
 Delocalization correction                              -0.43  0.51  4.61  4.66
                            ----------------------------------------------------
       Total dipole moment   -1.03  1.76  4.99  5.39    -1.03  1.76  4.99  5.39


 NATURAL RESONANCE THEORY ANALYSIS:

 Maximum reference structures : 20
 Maximum resonance structures : 300
 Memory requirements : 3223545 words of 99830816 available

 0 candidate reference structure(s) calculated by SR LEWIS
 Possible hypervalency for atom 1; restart with full density matrix
 8 candidate reference structure(s) calculated by SR LEWIS
 Initial loops searched 8 bonding pattern(s); 8 were retained
 Delocalization list threshold set to 3.07 kcal/mol for reference 1
 Delocalization list threshold set to 1.00 kcal/mol for reference 2
 Delocalization list threshold set to 12.70 kcal/mol for reference 3
 Delocalization list threshold set to 2.70 kcal/mol for reference 4
 Delocalization list threshold set to 2.58 kcal/mol for reference 5
 Delocalization list threshold set to 2.83 kcal/mol for reference 6
 Delocalization list threshold set to 3.03 kcal/mol for reference 7
 Delocalization list threshold set to 4.89 kcal/mol for reference 8
 Reference   1:  rho*=1.59378, f(w)=0.75682 converged after  38 iterations
 Reference   2:  rho*=1.09909, f(w)=0.79063 converged after  42 iterations
 Reference   3:  rho*=1.80682, f(w)=0.06464 converged after  15 iterations
 Reference   4:  rho*=1.59452, f(w)=0.76157 converged after  48 iterations
 Reference   5:  rho*=1.63971, f(w)=0.68920 converged after  38 iterations
 Reference   6:  rho*=1.74414, f(w)=0.40585 converged after  34 iterations
 Reference   7:  rho*=1.56150, f(w)=0.80624 converged after  48 iterations
 Reference   8:  rho*=2.20200, f(w)=0.43464 converged after  29 iterations
 Multi-ref( 8):  D(W)=0.00835, F(W)=0.08024 converged after 237 iterations
 2 reference structures have low weight (<35.0% of 18.6%); discarded
 Multi-ref( 6):  D(W)=0.00835, F(W)=0.08018 converged after 227 iterations

                                                fractional accuracy f(w)
                  non-Lewis             -------------------------------------
  Ref     Wgt      density      d(0)      all NBOs     val+core     valence
 ----------------------------------------------------------------------------
   1    0.16851    1.59378    0.06501     0.75682      0.89262      0.89262
   2    0.31460    1.09909    0.03925     0.79063      0.88721      0.88721
   4    0.16841    1.59452    0.06725     0.76157      0.89683      0.89683
   5    0.15163    1.63971    0.06618     0.68920      0.87436      0.87436
   6    0.14188    1.74414    0.07325     0.40585      0.76711      0.76712
   7    0.05497    1.56150    0.06768     0.80624      0.90961      0.90961


 TOPO matrix for the leading resonance structure:

     Atom  1   2   3   4   5   6   7   8   9
     ---- --- --- --- --- --- --- --- --- ---
   1.  S   0   1   1   1   1   0   0   0   0
   2.  O   1   3   0   0   0   0   0   0   0
   3.  O   1   0   3   0   0   0   0   0   0
   4.  N   1   0   0   1   0   1   1   0   0
   5.  N   1   0   0   0   1   0   0   1   1
   6.  H   0   0   0   1   0   0   0   0   0
   7.  H   0   0   0   1   0   0   0   0   0
   8.  H   0   0   0   0   1   0   0   0   0
   9.  H   0   0   0   0   1   0   0   0   0

         Resonance
    RS   Weight(%)                  Added(Removed)
 ---------------------------------------------------------------------------
    1*(5)  35.90
    2*(3)  10.92    S  1- O  3, ( S  1- N  5), ( O  3),  N  5
    3*(3)   9.69    S  1- O  2, ( S  1- N  5), ( O  2),  N  5
    4*(2)   9.61    S  1- O  2, ( S  1- N  4), ( O  2),  N  4
    5*(2)   9.47   ( S  1- O  2),  S  1- O  3,  O  2, ( O  3)
    6*(2)   7.85    S  1- O  2, ( S  1- O  3), ( O  2),  O  3
    7 (4)   5.34    S  1- O  3, ( S  1- N  4), ( O  3),  N  4
    8       1.93    S  1- O  2,  S  1- O  2, ( S  1- O  3), ( S  1- N  4),
                   ( O  2), ( O  2),  O  3,  N  4
    9       1.30   ( S  1- O  2),  S  1- O  3,  S  1- O  3, ( S  1- N  5),
                    O  2, ( O  3), ( O  3),  N  5
   10       0.95    S  1- O  2,  S  1- O  3, ( S  1- N  4), ( S  1- N  5),
                   ( O  2), ( O  3),  N  4,  N  5
   11       0.95    S  1- O  3,  S  1- O  3, ( S  1- N  4), ( S  1- N  5),
                   ( O  3), ( O  3),  N  4,  N  5
   12       0.72   ( S  1- O  2),  S  1- O  3,  S  1- O  3, ( S  1- N  4),
                    O  2, ( O  3), ( O  3),  N  4
   13       0.50    S  1- O  2, ( S  1- O  3), ( S  1- N  4), ( S  1- N  5),
                    S  1, ( O  2),  O  3,  N  4
   14       0.50    S  1- N  4, ( S  1- N  5), ( N  4),  N  5
   15       0.45   ( S  1- O  3),  S  1- N  4,  O  3, ( N  4)
   16       0.42   ( S  1- O  2),  S  1- N  5,  O  2, ( N  5)
   17       0.36   ( S  1- O  2),  S  1- N  4,  O  2, ( N  4)
   18       0.35    S  1- O  2,  S  1- O  2, ( S  1- O  3), ( S  1- N  5),
                   ( O  2), ( O  2),  O  3,  N  5
   19       0.33   ( S  1- O  3),  S  1- N  5,  O  3, ( N  5)
   20       0.30   ( S  1- N  4),  S  1- N  5,  N  4, ( N  5)
   21 (2)   0.29   ( S  1- O  3), ( S  1- N  5),  S  1,  O  3
   22       0.29    S  1- O  2,  S  1- O  2, ( S  1- N  4), ( S  1- N  5),
                   ( O  2), ( O  2),  N  4,  N  5
   23       0.22   ( S  1- O  2),  S  1- O  3,  S  1- N  4, ( S  1- N  5),
                    O  2, ( O  3), ( N  4),  N  5
   24       0.17   ( S  1- O  2), ( S  1- N  5),  S  1,  O  2
   25       0.12   ( S  1- N  4), ( S  1- N  5),  S  1,  N  4
   26       0.11   ( S  1- O  2), ( S  1- N  5),  S  1,  O  2, ( O  3),
                    N  5
   27-56    0.95
 ---------------------------------------------------------------------------
          100.00   * Total *                [* = reference structure]


 Natural Bond Order:  (total/covalent/ionic)

     Atom       1      2      3      4      5      6      7      8      9
     ----   ------ ------ ------ ------ ------ ------ ------ ------ ------
   1.  S  t 0.0182 1.2061 1.2095 0.8031 0.7449 0.0000 0.0000 0.0000 0.0000
          c   ---  0.5885 0.6040 0.5682 0.4817 0.0000 0.0000 0.0000 0.0000
          i   ---  0.6176 0.6055 0.2349 0.2632 0.0000 0.0000 0.0000 0.0000

   2.  O  t 1.2061 2.7913 0.0000 0.0000 0.0000 0.0000 0.0000 0.0000 0.0000
          c 0.5885   ---  0.0000 0.0000 0.0000 0.0000 0.0000 0.0000 0.0000
          i 0.6176   ---  0.0000 0.0000 0.0000 0.0000 0.0000 0.0000 0.0000

   3.  O  t 1.2095 0.0000 2.7883 0.0000 0.0000 0.0000 0.0000 0.0000 0.0000
          c 0.6040 0.0000   ---  0.0000 0.0000 0.0000 0.0000 0.0000 0.0000
          i 0.6055 0.0000   ---  0.0000 0.0000 0.0000 0.0000 0.0000 0.0000

   4.  N  t 0.8031 0.0000 0.0000 1.1958 0.0000 0.9996 0.9997 0.0000 0.0000
          c 0.5682 0.0000 0.0000   ---  0.0000 0.5997 0.5972 0.0000 0.0000
          i 0.2349 0.0000 0.0000   ---  0.0000 0.3999 0.4025 0.0000 0.0000

   5.  N  t 0.7449 0.0000 0.0000 0.0000 1.2448 0.0000 0.0000 0.9993 0.9993
          c 0.4817 0.0000 0.0000 0.0000   ---  0.0000 0.0000 0.5896 0.5943
          i 0.2632 0.0000 0.0000 0.0000   ---  0.0000 0.0000 0.4097 0.4050

   6.  H  t 0.0000 0.0000 0.0000 0.9996 0.0000 0.0000 0.0000 0.0000 0.0000
          c 0.0000 0.0000 0.0000 0.5997 0.0000   ---  0.0000 0.0000 0.0000
          i 0.0000 0.0000 0.0000 0.3999 0.0000   ---  0.0000 0.0000 0.0000

   7.  H  t 0.0000 0.0000 0.0000 0.9997 0.0000 0.0000 0.0000 0.0000 0.0000
          c 0.0000 0.0000 0.0000 0.5972 0.0000 0.0000   ---  0.0000 0.0000
          i 0.0000 0.0000 0.0000 0.4025 0.0000 0.0000   ---  0.0000 0.0000

   8.  H  t 0.0000 0.0000 0.0000 0.0000 0.9993 0.0000 0.0000 0.0000 0.0000
          c 0.0000 0.0000 0.0000 0.0000 0.5896 0.0000 0.0000   ---  0.0000
          i 0.0000 0.0000 0.0000 0.0000 0.4097 0.0000 0.0000   ---  0.0000

   9.  H  t 0.0000 0.0000 0.0000 0.0000 0.9993 0.0000 0.0000 0.0000 0.0000
          c 0.0000 0.0000 0.0000 0.0000 0.5943 0.0000 0.0000 0.0000   ---
          i 0.0000 0.0000 0.0000 0.0000 0.4050 0.0000 0.0000 0.0000   ---


 Natural Atomic Valencies:

                      Co-    Electro-
     Atom  Valency  Valency  Valency
     ----  -------  -------  -------
   1.  S    3.9637   2.2425   1.7212
   2.  O    1.2061   0.5885   0.6176
   3.  O    1.2095   0.6040   0.6055
   4.  N    2.8024   1.7651   1.0373
   5.  N    2.7436   1.6657   1.0780
   6.  H    0.9996   0.5997   0.3999
   7.  H    0.9997   0.5972   0.4025
   8.  H    0.9993   0.5896   0.4097
   9.  H    0.9993   0.5943   0.4050


 $NRTSTR
   STR        ! Wgt = 35.90%
     LONE 2 3 3 3 4 1 5 1 END
     BOND S 1 2 S 1 3 S 1 4 S 1 5 S 4 6 S 4 7 S 5 8 S 5 9 END
   END
   STR        ! Wgt = 10.92%
     LONE 2 3 3 2 4 1 5 2 END
     BOND S 1 2 D 1 3 S 1 4 S 4 6 S 4 7 S 5 8 S 5 9 END
   END
   STR        ! Wgt =  9.69%
     LONE 2 2 3 3 4 1 5 2 END
     BOND D 1 2 S 1 3 S 1 4 S 4 6 S 4 7 S 5 8 S 5 9 END
   END
   STR        ! Wgt =  9.61%
     LONE 2 2 3 3 4 2 5 1 END
     BOND D 1 2 S 1 3 S 1 5 S 4 6 S 4 7 S 5 8 S 5 9 END
   END
   STR        ! Wgt =  9.47%
     LONE 2 4 3 2 4 1 5 1 END
     BOND D 1 3 S 1 4 S 1 5 S 4 6 S 4 7 S 5 8 S 5 9 END
   END
   STR        ! Wgt =  7.85%
     LONE 2 2 3 4 4 1 5 1 END
     BOND D 1 2 S 1 4 S 1 5 S 4 6 S 4 7 S 5 8 S 5 9 END
   END
 $END

 Maximum scratch memory used by NBO was 3831405 words
 Maximum scratch memory used by GENNBO was 269445 words

 Total cpu seconds     user:   10687.000   user+sys:   10688.000
  
 Total elapsed time:    22220 seconds

Job tsa completed on d6copt016.crc.nd.edu at Mon Apr  7 18:37:18 2014
