Job tse started on d6copt016.crc.nd.edu at Mon Apr  7 12:27:42 2014
jobid: d6copt016-0-5342d1fd

  +--------------------------------------------------------------------+
  |  Jaguar version 8.1, release  14                                   |
  |                                                                    |
  |  Copyright Schrodinger, LLC                                        |
  |  All Rights Reserved.                                              |
  |                                                                    |
  |  Use of this program should be acknowledged in publications as:    |
  |  Jaguar, version 8.1, Schrodinger, LLC, New York, NY, 2013.        |
  +--------------------------------------------------------------------+
  
  start of program pre
  
  Job name: tse
  Executables used: /opt/crc/schrodinger/2013u2/jaguar-v81014/bin/Linux-x86_64
  Temporary files : /tmp/ehansen3/tse
  Maestro file (input):  tse.mae
  Maestro file (output): tse.01.mae
  
  
  basis set:             cc-pvtz(-f)++   
  net molecular charge:    0
  multiplicity:            1
  
  number of basis functions....          216
  
 Input geometry:
                                   angstroms
  atom               x                 y                 z
  S1            0.0026190000      0.0001860000      0.1146930000 
  O2            1.2567470000     -0.0822520000      0.8062830000 
  O3           -1.2343230000      0.0915050000      0.8354640000 
  N4           -0.0345700000      1.2643880000     -0.9590940000 
  N5            0.0141800000     -1.2771120000     -0.9436010000 
  H6            0.8626230000      1.7354420000     -0.9230690000 
  H7           -0.2393370000      0.9333930000     -1.8953440000 
  H8            0.9132150000     -1.3524480000     -1.4060760000 
  H9           -0.7347770000     -1.1397000000     -1.6131370000 
   
  principal moments of inertia:
        amu*angstrom^2:      104.02354      105.42152      112.00179
                g*cm^2: 1.72735127E-38 1.75056525E-38 1.85983330E-38
   
  rotational constants:
               cm^(-1):      0.16205591      0.15990691      0.15051214
                   GHz:      4.85831398      4.79388861      4.51224033
   
  Molecular weight:      96.00 amu
   
  Stoichiometry: N2H4SO2
  Molecular Point Group: C1      
  Point Group used: C1
  
 
Number of optimization coordinates:    21
Number of independent coordinates:     21
Number of non-redundant coordinates:   21
Number of frozen coordinates:           0
Number of harmonic constraints:         0
 
Number of geometric degrees of freedom:    21
Maximum geometric degrees of freedom:      21
 " " " " " excluding dummy atoms:          21
 
  nuclear repulsion energy.......     285.007929999 hartrees
 
 Non-default options chosen:
   SCF calculation type: DFT(m06)                    
   DFT=M06
   Transition state optimization
   Geometry will be optimized in redundant internal coordinates
   Culot/Fletcher trust radius adjustment
      initial trust radius:  0.100
   P-RFO level-shifting used
   Vibrational frequencies and related properties will be computed
      from analytic second derivatives
   IR intensities will be computed
   High accuracy cutoffs used in SCF
   Initial Hessian:  analytic 2nd derivatives
   Mixed Murtagh-Sargent/Powell Hessian-updating used
   Electrostatic potential fit to point charges on atomic centers
   Electrostatic potential fitting constrained to reproduce
     total charge:                yes
     dipole moment:               yes
     traceless quadrupole moment: no 
     traceless octapole moment:   no 
   Store KE, NAI, and pt. chg. terms separately
  
 Temporary integer options set:
     73=  2
  
  Peak memory usage:    448 Mb
  
  end of program pre
   
 Time(pre)  user:        0.0  user+sys:        0.0  wallclock:        0.4
  
  start of program onee
  
  smallest eigenvalue of S:    3.799E-05
  number of canonical orbitals.....          208
  Peak memory usage:    593 Mb
  
  end of program onee
   
 Time(onee)  user:        0.0  user+sys:        0.0  wallclock:        0.3
  
  start of program hfig
  
  initial wavefunction generated automatically from atomic wavefunctions
 
  Irreducible     Total no   No of occupied orbitals 
  representation  orbitals   Shell_1  Shell_2    ...
  No Symm          208         25
  ------------------------
  Orbital occupation/shell    1.000
 
  Peak memory usage:    532 Mb
  
  end of program hfig
   
 Time(hfig)  user:        0.0  user+sys:        0.0  wallclock:        0.3
  
  start of program probe
  
  Peak memory usage:    532 Mb
  
  end of program probe
   
 Time(probe)  user:        0.0  user+sys:        0.0  wallclock:        0.2
  
  start of program grid
  
  
   grid     grid set  grid #  grid sym
  ------    --------  ------  --------
  coarse        0        0        1
  medium        2        1        1
  fine          0        0        1
  ultrafine     4        2        1
  charge       -1        3        1
  gradient      4        2        1
  density       0        0        1
  DFT-fine    -11        4        1
  DFT-med.    -10        5        1
  DFT-grad    -12        6        1
  DFT-der2     -8        7        1
  DFT-cphf     -9        8        1
  LMP2-enrg     4        2        1
  LMP2-grad     2        1        1
  DFT-cphf2   -15        9        1
  PBF-dens      0        0        1
  plotting      0        0        1
  
   
  number of gridpoints: 
     atom        S1       O2       O3       N4       N5       H6       H7
  grid # 1      544      733      749      496      499      224      216
  grid # 2      544      733      749      496      499      224      216
  grid # 3       26     1373     1541      276      324     1230      967
  grid # 4    22280    22280    22280    22280    22280    22280    22280
  grid # 5     2152     2152     2152     2152     2152     2152     2152
  grid # 6    21648    21648    21648    21648    21648    21648    21648
  grid # 7    65628    63040    63040    62394    62394    66806    66806
  grid # 8     3470     7568     7568     8972     8972     9848     9848
  grid # 9      802     1434     1434     3852     3852     2486     2486
   
  number of gridpoints: 
     atom        H8       H9    total
  grid # 1      221      217     3899
  grid # 2      221      217     3899
  grid # 3     1155     1034     7926
  grid # 4    22280    22280   200520
  grid # 5     2152     2152    19368
  grid # 6    21648    21648   194832
  grid # 7    66806    66806   583720
  grid # 8     9848     9848    75942
  grid # 9     2486     2486    21318
   
  Peak memory usage:    575 Mb
  
  end of program grid
   
 Time(grid)  user:        2.0  user+sys:        2.0  wallclock:        4.2
  
  start of program rwr
  
  Peak memory usage:    456 Mb
  
  end of program rwr
   
 Time(rwr)  user:        2.0  user+sys:        2.0  wallclock:        2.5
  
  start of program scf
  
 number of electrons..........         50
 number of alpha electrons....         25
 number of beta electrons.....         25
 number of orbitals, total....        208
 number of doubly-occ'd orbs..         25
 number of open shell orbs....          0
 number of occupied orbitals..         25
 number of virtual orbitals...        183
 number of hamiltonians.......          1
 number of shells.............          1
 SCF type: DFT=M06
  
       i  u  d  i  g                   
       t  p  i  c  r                                 RMS    maximum
       e  d  i  u  i                       energy  density   DIIS  
       r  t  s  t  d       total energy    change  change    error 
  
etot    1  N  N  4  M    -658.90556665015           4.2E-03  1.5E-01
etot    2  Y  Y  6  M    -660.01884107944  1.1E+00  2.3E-03  6.6E-02
etot    3  Y  Y  6  M    -660.38805829778  3.7E-01  7.2E-04  3.4E-02
etot    4  N  Y  1  U    -660.44210097427  5.4E-02  7.2E-04  1.1E-02
etot    5  Y  Y  6  M    -660.45033409197  8.2E-03  4.1E-04  4.7E-03
etot    6  N  Y  1  U    -660.45057322472  2.4E-04  1.3E-04  1.4E-03
etot    7  Y  Y  6  M    -660.45082283408  2.5E-04  2.0E-05  6.4E-04
etot    8  N  Y  1  U    -660.45084142907  1.9E-05  8.0E-06  1.1E-04
etot    9  N  Y  1  U    -660.45084260544  1.2E-06  4.5E-06  2.7E-05
etot   10  N  N  1  U    -660.45084258541 -2.0E-08  0.0E+00  0.0E+00
  
  
 Energy components, in hartrees:
   (A)  Nuclear repulsion............     285.00792999905
   (E)  Total one-electron terms.....   -1473.51927204604
   (F)    Electron-nuclear...........   -2130.92130858770
   (H)    Kinetic....................     657.40203654167
   (I)  Total two-electron terms.....     528.06049946157
   (J)    Coulomb....................     586.25914775076
   (K)    Exchange+Correlation.......     -58.19864828919
   (L)  Electronic energy............    -945.45877258447  (E+I)
   (M)  -V/T.........................       2.00463765835  (-(A+F+I)/H)
   (N)  Total energy.................    -660.45084258541  (A+L)
  
 SCFE: SCF energy: DFT(m06)      -660.45084258541 hartrees   iterations:  10
  
 
 HOMO energy:    -0.30811
 LUMO energy:    -0.06704
 
  Orbital energies (hartrees): 
   -89.31280   -19.22904   -19.22465   -14.44360   -14.43692    -8.27216
    -6.19056    -6.18926    -6.18813    -1.17423    -1.05716    -0.97376
    -0.93003    -0.67184    -0.58960    -0.57676    -0.54725    -0.51572
    -0.47768    -0.39985    -0.38167    -0.36318    -0.35659    -0.33768
    -0.30811    -0.06704    -0.03331    -0.02943    -0.01133     0.01012
     0.01773     0.02636     0.03034     0.03856     0.04921
 
  Peak memory usage:    679 Mb
  
  end of program scf
   
 Time(scf)  user:      179.0  user+sys:      180.0  wallclock:      195.6
  
  start of program cutabab2
  
  Peak memory usage:    554 Mb
  
  end of program cutabab2
   
 Time(cutabab2)  user:        0.0  user+sys:        0.0  wallclock:        0.7
  
  start of program der2a
  
  Peak memory usage:    601 Mb
  
  end of program der2a
   
 Time(der2a)  user:        0.0  user+sys:        0.0  wallclock:        0.9
  
  start of program der2b
  
  Peak memory usage:    781 Mb
  
  end of program der2b
   
 Time(der2b)  user:     2434.0  user+sys:     2434.0  wallclock:     2621.0
  
  start of program der2nda
  
 
  Peak memory usage:    599 Mb
  
  end of program der2nda
   
 Time(der2nda)  user:        0.0  user+sys:        0.0  wallclock:        0.8
  
  start of program der2ndb
  
  Peak memory usage:    571 Mb
  
  end of program der2ndb
   
 Time(der2ndb)  user:     3042.0  user+sys:     3042.0  wallclock:     3235.2
  
  start of program rwr
  
  Peak memory usage:    456 Mb
  
  end of program rwr
   
 Time(rwr)  user:        2.0  user+sys:        2.0  wallclock:        2.7
  
  start of program cphfa
  
       1  vectors produced in CPHF
  
     v    i  j  k  i  g
     e    t  c  c  c  r
     c    e  o  o  u  i
     t    r  r  r  t  d       RMS  
  
     1    1  0  0  6  M     1.6E-02
     1    2  0  0  6  M     1.1E-03
     1    3  0  0  6  M     3.3E-04
     1    4  0  0  6  M     1.2E-04
     1    5  0  0  6  M     3.8E-05
  
  
  Atomic Polar Tensors (au): Total
  =========================
  
  APT for atom S1      
  --------------------------------------
        2.1549      -0.0055      -0.0554
       -0.0316       2.1651      -0.0167
       -0.0471      -0.0284       2.3759
  --------------------------------------
  
  APT for atom O2      
  --------------------------------------
       -1.0317       0.0046      -0.3276
        0.0332      -0.5799       0.0075
       -0.2261       0.0358      -0.7785
  --------------------------------------
  
  APT for atom O3      
  --------------------------------------
       -0.9946      -0.0033       0.3124
        0.0140      -0.5599      -0.0063
        0.2458       0.0165      -0.7639
  --------------------------------------
  
  APT for atom N4      
  --------------------------------------
       -0.4416       0.1024      -0.0425
        0.0155      -0.9826       0.2684
        0.0083       0.3488      -0.6980
  --------------------------------------
  
  APT for atom N5      
  --------------------------------------
       -0.3944      -0.0144       0.0627
       -0.0060      -0.9937      -0.2483
        0.0143      -0.3166      -0.6584
  --------------------------------------
  
  APT for atom H6      
  --------------------------------------
        0.1451      -0.0235       0.0102
        0.0005       0.2807       0.0113
        0.0007       0.0549       0.1472
  --------------------------------------
  
  APT for atom H7      
  --------------------------------------
        0.2197      -0.0774       0.0488
       -0.0480       0.1639      -0.0426
        0.0212      -0.0339       0.1445
  --------------------------------------
  
  APT for atom H8      
  --------------------------------------
        0.1706      -0.0760      -0.0079
       -0.0585       0.2694      -0.0043
        0.0210      -0.0460       0.1253
  --------------------------------------
  
  APT for atom H9      
  --------------------------------------
        0.1715       0.0929      -0.0010
        0.0806       0.2368       0.0309
       -0.0382      -0.0309       0.1055
  --------------------------------------
  
  Peak memory usage:    711 Mb
  
  end of program cphfa
   
 Time(cphfa)  user:     2218.0  user+sys:     2218.0  wallclock:     2398.1
  
  start of program der1a
  
  Peak memory usage:    597 Mb
  
  end of program der1a
   
 Time(der1a)  user:        0.0  user+sys:        0.0  wallclock:        0.5
  
  start of program rwr
  
  Peak memory usage:    454 Mb
  
  end of program rwr
   
 Time(rwr)  user:        1.0  user+sys:        1.0  wallclock:        2.1
  
  start of program der1b
  
   
  forces (hartrees/bohr) : total     
   
 atom  label           x              y              z
 ---- --------   -------------  -------------  -------------
    1 S1         -5.672048E-03  -3.806051E-03   8.852921E-03
    2 O2         -2.227316E-03   9.784595E-03  -3.311025E-03
    3 O3          9.571425E-03  -1.354950E-02  -8.051364E-03
    4 N4          1.095045E-02   1.864602E-02  -2.695820E-03
    5 N5         -1.372964E-02  -1.117163E-02   1.995961E-03
    6 H6         -3.455413E-04   2.672577E-03  -4.159336E-03
    7 H7          2.710119E-03   5.409218E-03   2.738305E-03
    8 H8          2.980053E-04   8.801457E-04   2.048142E-03
    9 H9         -1.210169E-03  -7.995968E-03  -1.165934E-03
 -------------   -------------  -------------  -------------
     total        3.452874E-04   8.694165E-04  -3.748150E-03
   
  Peak memory usage:    681 Mb
  
  end of program der1b
   
 Time(der1b)  user:       64.0  user+sys:       64.0  wallclock:       71.2
  
  start of program geopt
  
  geometry optimization step  1
  energy:            -660.45084258541 hartrees
  
  TS search will follow eigenvector   1 on this iteration
  
  Selected vector:  eigenvalue    -1.06945E-02

  1)  O2-S1-N4-H6( 11) -0.68868
      N5-S1-N4-H6( 17) -0.68606
  
  
  Level shifts adjusted to satisfy step-size constraints
   Step size:    0.1000576
   Cos(theta):   0.9402165
   Final level shift:  -3.5712037E-01
  
  gradient maximum:        5.5808E-02 .  (  4.5000E-04 )
  gradient rms:            2.0211E-02 .  (  3.0000E-04 )
  displacement maximum:    6.1557E-02 .  (  1.8000E-03 )
  displacement rms:        2.1834E-02 .  (  1.2000E-03 )
  
  predicted energy change:  -6.0388E-03
  step size:     0.10005
  trust radius:  0.10000
  
  molecular structure not yet converged...
  
  center of mass moved by:
     x:     1.0533E-02     y:     1.1161E-03     z:    -2.6264E-02
  
  new geometry: 
                                   angstroms
  atom               x                 y                 z
  S1            0.0094774399      0.0054259638      0.1074748831 
  O2            1.2618580250     -0.0271036391      0.8005200856 
  O3           -1.2391173699      0.0173986280      0.7999083636 
  N4           -0.0214867585      1.3081010671     -0.9386839107 
  N5           -0.0117198893     -1.3110345195     -0.9088611969 
  H6            0.8682187874      1.7917112989     -0.8797359388 
  H7           -0.2036887725      1.0107587884     -1.8882096361 
  H8            0.8754754812     -1.4066235772     -1.3901531150 
  H9           -0.7828040354     -1.2205471405     -1.5610575303 
   
  nuclear repulsion energy.......     284.566530341 hartrees
  -------------------------------------------------
 /  end of geometry optimization iteration   1   /
 -------------------------------------------------
   
  Peak memory usage:    449 Mb
  
  end of program geopt
   
 Time(geopt)  user:        0.0  user+sys:        0.0  wallclock:        0.1
  
  start of program onee
  
  smallest eigenvalue of S:    3.747E-05
  number of canonical orbitals.....          208
  Peak memory usage:    593 Mb
  
  end of program onee
   
 Time(onee)  user:        0.0  user+sys:        0.0  wallclock:        0.4
  
  start of program probe
  
  Peak memory usage:    532 Mb
  
  end of program probe
   
 Time(probe)  user:        0.0  user+sys:        0.0  wallclock:        0.2
  
  start of program grid
  
  
   grid     grid set  grid #  grid sym
  ------    --------  ------  --------
  coarse        0        0        1
  medium        2        1        1
  fine          0        0        1
  ultrafine     4        2        1
  charge       -1        3        1
  gradient      4        2        1
  density       0        0        1
  DFT-fine    -11        4        1
  DFT-med.    -10        5        1
  DFT-grad    -12        6        1
  DFT-der2     -8        7        1
  DFT-cphf     -9        8        1
  LMP2-enrg     4        2        1
  LMP2-grad     2        1        1
  DFT-cphf2   -15        9        1
  PBF-dens      0        0        1
  plotting      0        0        1
  
   
  number of gridpoints: 
     atom        S1       O2       O3       N4       N5       H6       H7
  grid # 1      543      735      741      499      498      224      217
  grid # 2      543      735      741      499      498      225      217
  grid # 3       21     1365     1513      280      309     1232     1012
  grid # 4    22280    22280    22280    22280    22280    22280    22280
  grid # 5     2152     2152     2152     2152     2152     2152     2152
  grid # 6    21648    21648    21648    21648    21648    21648    21648
  grid # 7    65628    63040    63040    62394    62394    66806    66806
  grid # 8     3470     7568     7568     8972     8972     9848     9848
  grid # 9      802     1434     1434     3852     3852     2486     2486
   
  number of gridpoints: 
     atom        H8       H9    total
  grid # 1      221      219     3897
  grid # 2      221      219     3898
  grid # 3     1172     1062     7966
  grid # 4    22280    22280   200520
  grid # 5     2152     2152    19368
  grid # 6    21648    21648   194832
  grid # 7    66806    66806   583720
  grid # 8     9848     9848    75942
  grid # 9     2486     2486    21318
   
  Peak memory usage:    575 Mb
  
  end of program grid
   
 Time(grid)  user:        2.0  user+sys:        2.0  wallclock:        3.6
  
  start of program rwr
  
  Peak memory usage:    456 Mb
  
  end of program rwr
   
 Time(rwr)  user:        2.0  user+sys:        2.0  wallclock:        2.6
  
  start of program scf
  
  
       i  u  d  i  g                   
       t  p  i  c  r                                 RMS    maximum
       e  d  i  u  i                       energy  density   DIIS  
       r  t  s  t  d       total energy    change  change    error 
  
etot    1  N  N  1  U    -660.45124473613           3.7E-04  6.8E-03
etot    2  Y  Y  6  M    -660.45632322378  5.1E-03  7.4E-05  8.4E-04
etot    3  N  Y  1  U    -660.45654187246  2.2E-04  2.5E-05  5.4E-04
etot    4  N  Y  1  U    -660.45657705273  3.5E-05  1.1E-05  2.5E-04
etot    5  N  Y  1  U    -660.45658351622  6.5E-06  3.1E-06  5.7E-05
etot    6  N  N  1  U    -660.45658389589  3.8E-07  0.0E+00  0.0E+00
  
  
 Energy components, in hartrees:
   (A)  Nuclear repulsion............     284.56653034114
   (E)  Total one-electron terms.....   -1472.69819649292
   (F)    Electron-nuclear...........   -2130.09021004518
   (H)    Kinetic....................     657.39201355226
   (I)  Total two-electron terms.....     527.67508225589
   (J)    Coulomb....................     585.87161392506
   (K)    Exchange+Correlation.......     -58.19653166916
   (L)  Electronic energy............    -945.02311423702  (E+I)
   (M)  -V/T.........................       2.00466170912  (-(A+F+I)/H)
   (N)  Total energy.................    -660.45658389589  (A+L)
  
 SCFE: SCF energy: DFT(m06)      -660.45658389589 hartrees   iterations:   6
  
 
 HOMO energy:    -0.30952
 LUMO energy:    -0.06587
 
  Orbital energies (hartrees): 
   -89.31156   -19.22939   -19.22066   -14.44323   -14.43805    -8.27081
    -6.18917    -6.18798    -6.18677    -1.17438    -1.05864    -0.96621
    -0.93098    -0.66975    -0.58903    -0.57339    -0.54740    -0.51441
    -0.47673    -0.39738    -0.37992    -0.36163    -0.35680    -0.34003
    -0.30952    -0.06587    -0.03353    -0.02879    -0.01222     0.01048
     0.01805     0.02664     0.03210     0.03995     0.05120
 
  Peak memory usage:    679 Mb
  
  end of program scf
   
 Time(scf)  user:      142.0  user+sys:      142.0  wallclock:      156.6
  
  start of program der1a
  
  Peak memory usage:    597 Mb
  
  end of program der1a
   
 Time(der1a)  user:        0.0  user+sys:        0.0  wallclock:        0.4
  
  start of program rwr
  
  Peak memory usage:    454 Mb
  
  end of program rwr
   
 Time(rwr)  user:        1.0  user+sys:        1.0  wallclock:        2.0
  
  start of program der1b
  
   
  forces (hartrees/bohr) : total     
   
 atom  label           x              y              z
 ---- --------   -------------  -------------  -------------
    1 S1         -7.772090E-03  -6.609177E-03   5.100653E-04
    2 O2         -7.567032E-04   5.706034E-03  -2.182426E-03
    3 O3          3.204997E-03  -3.057204E-03  -8.630962E-04
    4 N4          8.394533E-03   9.116278E-03   4.941192E-04
    5 N5         -1.610956E-03  -2.134347E-03  -1.898800E-04
    6 H6         -1.392874E-04   7.135088E-04  -2.308597E-03
    7 H7          2.063018E-04   2.739597E-03   4.449021E-04
    8 H8          9.355628E-05  -1.829121E-04  -1.012847E-04
    9 H9         -1.248656E-03  -5.369546E-03   2.080499E-04
 -------------   -------------  -------------  -------------
     total        3.716954E-04   9.222324E-04  -3.988147E-03
   
  Peak memory usage:    681 Mb
  
  end of program der1b
   
 Time(der1b)  user:       63.0  user+sys:       63.0  wallclock:       67.9
  
  start of program geopt
  
  geometry optimization step  2
  energy:            -660.45658389589 hartrees
  
  TS search will follow eigenvector   1 on this iteration
  
  Selected vector:  eigenvalue    -1.07245E-02

  1)  N5-S1-N4-H6( 17)  0.68554
      O2-S1-N4-H6( 11)  0.68405
  
  
  Level shifts adjusted to satisfy step-size constraints
   Step size:    0.1414420
   Cos(theta):   0.7354609
   Final level shift:  -6.0044152E-02
  
  energy change:          -5.7413E-03 .  (  5.0000E-05 )
  gradient maximum:        2.4567E-02 .  (  4.5000E-04 )
  gradient rms:            7.8348E-03 .  (  3.0000E-04 )
  displacement maximum:    6.4705E-02 .  (  1.8000E-03 )
  displacement rms:        3.0865E-02 .  (  1.2000E-03 )
  
  predicted energy change:  -1.9871E-03
  step size:     0.14144
  trust radius:  0.14142
  
  molecular structure not yet converged...
  
  center of mass moved by:
     x:     1.5501E-03     y:     7.9014E-03     z:    -2.8654E-02
  
  new geometry: 
                                   angstroms
  atom               x                 y                 z
  S1            0.0053944982      0.0032773182      0.0989965573 
  O2            1.2605253948      0.0099693276      0.7855853389 
  O3           -1.2381586908     -0.0145368613      0.7908634126 
  N4           -0.0057428773      1.3353828485     -0.9233391204 
  N5           -0.0167313409     -1.3362031939     -0.8869325085 
  H6            0.8655473304      1.8422625643     -0.8037443787 
  H7           -0.1340087086      1.0697507304     -1.8907166035 
  H8            0.8482864559     -1.4334525066     -1.4052241131 
  H9           -0.8362823270     -1.3459938930     -1.4878217156 
   
  nuclear repulsion energy.......     284.244824546 hartrees
  -------------------------------------------------
 /  end of geometry optimization iteration   2   /
 -------------------------------------------------
   
  Peak memory usage:    450 Mb
  
  end of program geopt
   
 Time(geopt)  user:        0.0  user+sys:        0.0  wallclock:        0.2
  
  start of program onee
  
  smallest eigenvalue of S:    3.754E-05
  number of canonical orbitals.....          208
  Peak memory usage:    593 Mb
  
  end of program onee
   
 Time(onee)  user:        0.0  user+sys:        0.0  wallclock:        0.5
  
  start of program probe
  
  Peak memory usage:    532 Mb
  
  end of program probe
   
 Time(probe)  user:        0.0  user+sys:        0.0  wallclock:        0.2
  
  start of program grid
  
  
   grid     grid set  grid #  grid sym
  ------    --------  ------  --------
  coarse        0        0        1
  medium        2        1        1
  fine          0        0        1
  ultrafine     4        2        1
  charge       -1        3        1
  gradient      4        2        1
  density       0        0        1
  DFT-fine    -11        4        1
  DFT-med.    -10        5        1
  DFT-grad    -12        6        1
  DFT-der2     -8        7        1
  DFT-cphf     -9        8        1
  LMP2-enrg     4        2        1
  LMP2-grad     2        1        1
  DFT-cphf2   -15        9        1
  PBF-dens      0        0        1
  plotting      0        0        1
  
   
  number of gridpoints: 
     atom        S1       O2       O3       N4       N5       H6       H7
  grid # 1      542      733      742      499      494      223      218
  grid # 2      542      733      742      499      494      224      218
  grid # 3       18     1358     1503      284      289     1227     1060
  grid # 4    22280    22280    22280    22280    22280    22280    22280
  grid # 5     2152     2152     2152     2152     2152     2152     2152
  grid # 6    21648    21648    21648    21648    21648    21648    21648
  grid # 7    65628    63040    63040    62394    62394    66806    66806
  grid # 8     3470     7568     7568     8972     8972     9848     9848
  grid # 9      802     1434     1434     3852     3852     2486     2486
   
  number of gridpoints: 
     atom        H8       H9    total
  grid # 1      222      221     3894
  grid # 2      222      221     3895
  grid # 3     1173     1130     8042
  grid # 4    22280    22280   200520
  grid # 5     2152     2152    19368
  grid # 6    21648    21648   194832
  grid # 7    66806    66806   583720
  grid # 8     9848     9848    75942
  grid # 9     2486     2486    21318
   
  Peak memory usage:    575 Mb
  
  end of program grid
   
 Time(grid)  user:        3.0  user+sys:        3.0  wallclock:        3.8
  
  start of program rwr
  
  Peak memory usage:    456 Mb
  
  end of program rwr
   
 Time(rwr)  user:        2.0  user+sys:        2.0  wallclock:        2.6
  
  start of program scf
  
  
       i  u  d  i  g                   
       t  p  i  c  r                                 RMS    maximum
       e  d  i  u  i                       energy  density   DIIS  
       r  t  s  t  d       total energy    change  change    error 
  
etot    1  N  N  1  U    -660.45436217333           2.8E-04  4.7E-03
etot    2  Y  Y  6  M    -660.45814519575  3.8E-03  6.8E-05  8.1E-04
etot    3  Y  Y  6  M    -660.45823741476  9.2E-05  2.5E-05  1.1E-03
etot    4  N  Y  1  U    -660.45834681027  1.1E-04  1.1E-05  1.4E-04
etot    5  N  Y  1  U    -660.45835041991  3.6E-06  4.2E-06  7.4E-05
etot    6  N  N  1  U    -660.45835076807  3.5E-07  0.0E+00  0.0E+00
  
  
 Energy components, in hartrees:
   (A)  Nuclear repulsion............     284.24482454600
   (E)  Total one-electron terms.....   -1472.12317525797
   (F)    Electron-nuclear...........   -2129.49770019792
   (H)    Kinetic....................     657.37452493995
   (I)  Total two-electron terms.....     527.41999994390
   (J)    Coulomb....................     585.61376612725
   (K)    Exchange+Correlation.......     -58.19376618335
   (L)  Electronic energy............    -944.70317531407  (E+I)
   (M)  -V/T.........................       2.00469112463  (-(A+F+I)/H)
   (N)  Total energy.................    -660.45835076807  (A+L)
  
 SCFE: SCF energy: DFT(m06)      -660.45835076807 hartrees   iterations:   6
  
 
 HOMO energy:    -0.30821
 LUMO energy:    -0.06457
 
  Orbital energies (hartrees): 
   -89.31061   -19.22657   -19.21959   -14.44437   -14.43587    -8.26971
    -6.18808    -6.18691    -6.18568    -1.17389    -1.05865    -0.96004
    -0.92983    -0.66917    -0.58908    -0.56992    -0.54774    -0.51298
    -0.47537    -0.39524    -0.37854    -0.35815    -0.35657    -0.34138
    -0.30821    -0.06457    -0.03387    -0.02759    -0.01410     0.01147
     0.01925     0.02640     0.03274     0.04140     0.05419
 
  Peak memory usage:    679 Mb
  
  end of program scf
   
 Time(scf)  user:      119.0  user+sys:      119.0  wallclock:      130.9
  
  start of program der1a
  
  Peak memory usage:    597 Mb
  
  end of program der1a
   
 Time(der1a)  user:        0.0  user+sys:        0.0  wallclock:        0.5
  
  start of program rwr
  
  Peak memory usage:    454 Mb
  
  end of program rwr
   
 Time(rwr)  user:        1.0  user+sys:        1.0  wallclock:        1.9
  
  start of program der1b
  
   
  forces (hartrees/bohr) : total     
   
 atom  label           x              y              z
 ---- --------   -------------  -------------  -------------
    1 S1         -1.476380E-03  -3.578490E-03  -4.110636E-03
    2 O2          6.675503E-04   1.498031E-03   2.286854E-04
    3 O3         -2.765194E-03   1.823652E-04   1.852779E-03
    4 N4          3.778362E-03   2.910640E-03   3.609768E-05
    5 N5          1.426700E-04   1.634962E-03  -2.537038E-03
    6 H6         -4.664095E-04  -1.025196E-03  -1.622340E-03
    7 H7         -6.931338E-04   1.473803E-03   2.182770E-04
    8 H8         -1.552887E-04  -3.490454E-04  -6.395663E-04
    9 H9          1.393103E-03  -2.331652E-03   2.628003E-03
 -------------   -------------  -------------  -------------
     total        4.252784E-04   4.154175E-04  -3.945739E-03
   
  Peak memory usage:    681 Mb
  
  end of program der1b
   
 Time(der1b)  user:       62.0  user+sys:       62.0  wallclock:       68.7
  
  start of program geopt
  
  geometry optimization step  3
  energy:            -660.45835076807 hartrees
  
  TS search will follow eigenvector   1 on this iteration
  
  Selected vector:  eigenvalue    -9.12798E-03

  1)  N5-S1-N4-H6( 17)  0.67584
      O2-S1-N4-H6( 11)  0.66470
  
  
  Level shifts adjusted to satisfy step-size constraints
   Step size:    0.2009296
   Cos(theta):   0.6514349
   Final level shift:  -1.2893079E-02
  
  energy change:          -1.7669E-03 .  (  5.0000E-05 )
  gradient maximum:        6.5367E-03 .  (  4.5000E-04 )
  gradient rms:            2.6321E-03 .  (  3.0000E-04 )
  displacement maximum:    1.2272E-01 .  (  1.8000E-03 )
  displacement rms:        4.3846E-02 .  (  1.2000E-03 )
  
  predicted energy change:  -1.6860E-04
  step size:     0.20093
  trust radius:  0.20000
  
  molecular structure not yet converged...
  
  center of mass moved by:
     x:     4.5547E-03     y:     2.8152E-03     z:    -2.5588E-02
  
  new geometry: 
                                   angstroms
  atom               x                 y                 z
  S1            0.0051400588      0.0005934853      0.0926372352 
  O2            1.2616713432      0.0155618506      0.7784832042 
  O3           -1.2352868755     -0.0165476827      0.7972042082 
  N4           -0.0049120939      1.3436945954     -0.9254631051 
  N5           -0.0199071837     -1.3412110946     -0.8782287505 
  H6            0.8146762128      1.9119507070     -0.7190711513 
  H7           -0.0273006263      1.0897891665     -1.9061852387 
  H8            0.8152475314     -1.4483873971     -1.4405297026 
  H9           -0.8821903244     -1.4383931187     -1.3993173313 
   
  nuclear repulsion energy.......     283.862846570 hartrees
  -------------------------------------------------
 /  end of geometry optimization iteration   3   /
 -------------------------------------------------
   
  Peak memory usage:    450 Mb
  
  end of program geopt
   
 Time(geopt)  user:        0.0  user+sys:        0.0  wallclock:        0.2
  
  start of program onee
  
  smallest eigenvalue of S:    3.784E-05
  number of canonical orbitals.....          208
  Peak memory usage:    593 Mb
  
  end of program onee
   
 Time(onee)  user:        0.0  user+sys:        0.0  wallclock:        0.3
  
  start of program probe
  
  Peak memory usage:    532 Mb
  
  end of program probe
   
 Time(probe)  user:        0.0  user+sys:        0.0  wallclock:        0.2
  
  start of program grid
  
  
   grid     grid set  grid #  grid sym
  ------    --------  ------  --------
  coarse        0        0        1
  medium        2        1        1
  fine          0        0        1
  ultrafine     4        2        1
  charge       -1        3        1
  gradient      4        2        1
  density       0        0        1
  DFT-fine    -11        4        1
  DFT-med.    -10        5        1
  DFT-grad    -12        6        1
  DFT-der2     -8        7        1
  DFT-cphf     -9        8        1
  LMP2-enrg     4        2        1
  LMP2-grad     2        1        1
  DFT-cphf2   -15        9        1
  PBF-dens      0        0        1
  plotting      0        0        1
  
   
  number of gridpoints: 
     atom        S1       O2       O3       N4       N5       H6       H7
  grid # 1      544      734      741      499      486      223      220
  grid # 2      544      734      741      499      486      224      220
  grid # 3       16     1357     1491      279      260     1231     1082
  grid # 4    22280    22280    22280    22280    22280    22280    22280
  grid # 5     2152     2152     2152     2152     2152     2152     2152
  grid # 6    21648    21648    21648    21648    21648    21648    21648
  grid # 7    65628    63040    63040    62394    62394    66806    66806
  grid # 8     3470     7568     7568     8972     8972     9848     9848
  grid # 9      802     1434     1434     3852     3852     2486     2486
   
  number of gridpoints: 
     atom        H8       H9    total
  grid # 1      223      222     3892
  grid # 2      223      222     3893
  grid # 3     1170     1166     8052
  grid # 4    22280    22280   200520
  grid # 5     2152     2152    19368
  grid # 6    21648    21648   194832
  grid # 7    66806    66806   583720
  grid # 8     9848     9848    75942
  grid # 9     2486     2486    21318
   
  Peak memory usage:    575 Mb
  
  end of program grid
   
 Time(grid)  user:        3.0  user+sys:        3.0  wallclock:        3.5
  
  start of program rwr
  
  Peak memory usage:    456 Mb
  
  end of program rwr
   
 Time(rwr)  user:        2.0  user+sys:        2.0  wallclock:        2.3
  
  start of program scf
  
  
       i  u  d  i  g                   
       t  p  i  c  r                                 RMS    maximum
       e  d  i  u  i                       energy  density   DIIS  
       r  t  s  t  d       total energy    change  change    error 
  
etot    1  N  N  1  U    -660.45375069039           2.7E-04  4.3E-03
etot    2  Y  Y  6  M    -660.45815280172  4.4E-03  7.4E-05  1.0E-03
etot    3  Y  Y  6  M    -660.45831616667  1.6E-04  2.3E-05  1.1E-03
etot    4  N  Y  1  U    -660.45838352162  6.7E-05  1.0E-05  2.2E-04
etot    5  N  Y  1  U    -660.45838900144  5.5E-06  5.2E-06  6.5E-05
etot    6  N  Y  1  U    -660.45838965583  6.5E-07  1.5E-06  3.9E-05
etot    7  N  N  1  U    -660.45838981356  1.6E-07  0.0E+00  0.0E+00
  
  
 Energy components, in hartrees:
   (A)  Nuclear repulsion............     283.86284657018
   (E)  Total one-electron terms.....   -1471.40959782915
   (F)    Electron-nuclear...........   -2128.74853562168
   (H)    Kinetic....................     657.33893779253
   (I)  Total two-electron terms.....     527.08836144541
   (J)    Coulomb....................     585.27602328743
   (K)    Exchange+Correlation.......     -58.18766184203
   (L)  Electronic energy............    -944.32123638375  (E+I)
   (M)  -V/T.........................       2.00474557620  (-(A+F+I)/H)
   (N)  Total energy.................    -660.45838981356  (A+L)
  
 SCFE: SCF energy: DFT(m06)      -660.45838981356 hartrees   iterations:   7
  
 
 HOMO energy:    -0.30585
 LUMO energy:    -0.06363
 
  Orbital energies (hartrees): 
   -89.31082   -19.22389   -19.21880   -14.44524   -14.43491    -8.26957
    -6.18801    -6.18681    -6.18553    -1.17152    -1.05585    -0.95813
    -0.92857    -0.67065    -0.58912    -0.57066    -0.54719    -0.51084
    -0.47452    -0.39328    -0.37765    -0.35797    -0.35098    -0.34224
    -0.30585    -0.06363    -0.03436    -0.02600    -0.01630     0.01294
     0.02006     0.02554     0.03367     0.04210     0.05587
 
  Peak memory usage:    679 Mb
  
  end of program scf
   
 Time(scf)  user:      138.0  user+sys:      138.0  wallclock:      155.2
  
  start of program der1a
  
  Peak memory usage:    597 Mb
  
  end of program der1a
   
 Time(der1a)  user:        0.0  user+sys:        0.0  wallclock:        0.4
  
  start of program rwr
  
  Peak memory usage:    454 Mb
  
  end of program rwr
   
 Time(rwr)  user:        1.0  user+sys:        1.0  wallclock:        2.0
  
  start of program der1b
  
   
  forces (hartrees/bohr) : total     
   
 atom  label           x              y              z
 ---- --------   -------------  -------------  -------------
    1 S1         -2.264008E-03  -1.575090E-04  -6.802681E-04
    2 O2          4.327510E-04   6.333551E-04   2.778648E-04
    3 O3          3.619085E-04  -6.248854E-05  -8.724429E-04
    4 N4          2.999524E-03   1.331188E-03  -1.096964E-03
    5 N5          1.631846E-03   1.991506E-03  -2.338072E-03
    6 H6         -2.400542E-03  -3.161416E-03  -2.036386E-03
    7 H7         -1.843001E-04   7.135225E-04   2.062610E-03
    8 H8         -5.808311E-04   8.943544E-05   1.766278E-04
    9 H9         -1.101355E-04  -8.342726E-04   9.619505E-04
 -------------   -------------  -------------  -------------
     total       -1.137863E-04   5.433203E-04  -3.545079E-03
   
  Peak memory usage:    681 Mb
  
  end of program der1b
   
 Time(der1b)  user:       64.0  user+sys:       64.0  wallclock:       69.1
  
  start of program geopt
  
  geometry optimization step  4
  energy:            -660.45838981356 hartrees
  
  TS search will follow eigenvector   1 on this iteration
  
  Selected vector:  eigenvalue    -2.05789E-03

  1)  N5-S1-N4-H6( 17) -0.64626
      O2-S1-N4-H6( 11) -0.63600
  
  
  Level shifts adjusted to satisfy step-size constraints
   Step size:    0.2828907
   Cos(theta):   0.5238286
   Final level shift:  -5.1795838E-03
  
  energy change:          -3.9045E-05 *  (  5.0000E-05 )
  gradient maximum:        3.9682E-03 .  (  4.5000E-04 )
  gradient rms:            1.5296E-03 .  (  3.0000E-04 )
  displacement maximum:    1.6596E-01 .  (  1.8000E-03 )
  displacement rms:        6.1732E-02 .  (  1.2000E-03 )
  
  predicted energy change:   1.8729E-04
  step size:     0.28289
  trust radius:  0.28284
  
  molecular structure not yet converged...
  
  center of mass moved by:
     x:     6.9042E-03     y:     8.5705E-03     z:    -2.9380E-02
  
  new geometry: 
                                   angstroms
  atom               x                 y                 z
  S1            0.0068187096     -0.0002390131      0.0918419505 
  O2            1.2676770004      0.0108513620      0.7723653412 
  O3           -1.2270155241     -0.0186877779      0.8098796308 
  N4           -0.0146027267      1.3408241136     -0.9374930252 
  N5           -0.0281316440     -1.3252912676     -0.8827182488 
  H6            0.7151808307      1.9785683805     -0.6297046193 
  H7            0.1453989129      1.0684289297     -1.9028451941 
  H8            0.7658704681     -1.4451720067     -1.4945219852 
  H9           -0.9369385589     -1.5330443436     -1.2873487935 
   
  nuclear repulsion energy.......     283.896272803 hartrees
  -------------------------------------------------
 /  end of geometry optimization iteration   4   /
 -------------------------------------------------
   
  Peak memory usage:    450 Mb
  
  end of program geopt
   
 Time(geopt)  user:        0.0  user+sys:        0.0  wallclock:        0.2
  
  start of program onee
  
  smallest eigenvalue of S:    3.900E-05
  number of canonical orbitals.....          209
  Peak memory usage:    593 Mb
  
  end of program onee
   
 Time(onee)  user:        0.0  user+sys:        0.0  wallclock:        0.3
  
  start of program probe
  
  Peak memory usage:    532 Mb
  
  end of program probe
   
 Time(probe)  user:        0.0  user+sys:        0.0  wallclock:        0.3
  
  start of program grid
  
  
   grid     grid set  grid #  grid sym
  ------    --------  ------  --------
  coarse        0        0        1
  medium        2        1        1
  fine          0        0        1
  ultrafine     4        2        1
  charge       -1        3        1
  gradient      4        2        1
  density       0        0        1
  DFT-fine    -11        4        1
  DFT-med.    -10        5        1
  DFT-grad    -12        6        1
  DFT-der2     -8        7        1
  DFT-cphf     -9        8        1
  LMP2-enrg     4        2        1
  LMP2-grad     2        1        1
  DFT-cphf2   -15        9        1
  PBF-dens      0        0        1
  plotting      0        0        1
  
   
  number of gridpoints: 
     atom        S1       O2       O3       N4       N5       H6       H7
  grid # 1      545      734      740      505      487      223      220
  grid # 2      545      734      740      505      487      224      220
  grid # 3       19     1367     1477      289      224     1229     1086
  grid # 4    22280    22280    22280    22280    22280    22280    22280
  grid # 5     2152     2152     2152     2152     2152     2152     2152
  grid # 6    21648    21648    21648    21648    21648    21648    21648
  grid # 7    65628    63040    63040    62394    62394    66806    66806
  grid # 8     3470     7568     7568     8972     8972     9848     9848
  grid # 9      802     1434     1434     3852     3852     2486     2486
   
  number of gridpoints: 
     atom        H8       H9    total
  grid # 1      223      229     3906
  grid # 2      223      230     3908
  grid # 3     1171     1229     8091
  grid # 4    22280    22280   200520
  grid # 5     2152     2152    19368
  grid # 6    21648    21648   194832
  grid # 7    66806    66806   583720
  grid # 8     9848     9848    75942
  grid # 9     2486     2486    21318
   
  Peak memory usage:    575 Mb
  
  end of program grid
   
 Time(grid)  user:        2.0  user+sys:        2.0  wallclock:        3.7
  
  start of program rwr
  
  Peak memory usage:    456 Mb
  
  end of program rwr
   
 Time(rwr)  user:        2.0  user+sys:        2.0  wallclock:        2.5
  
  start of program scf
  
  
       i  u  d  i  g                   
       t  p  i  c  r                                 RMS    maximum
       e  d  i  u  i                       energy  density   DIIS  
       r  t  s  t  d       total energy    change  change    error 
  
etot    1  N  N  1  U    -660.44864301025           1.4E-03  9.4E-03
etot    2  Y  Y  6  M    -660.45766283630  9.0E-03  2.0E-04  1.3E-03
etot    3  N  Y  1  U    -660.45817019688  5.1E-04  4.5E-05  1.1E-03
etot    4  N  Y  1  U    -660.45829454734  1.2E-04  1.8E-05  2.5E-04
etot    5  N  Y  1  U    -660.45830625551  1.2E-05  7.1E-06  1.2E-04
etot    6  N  Y  1  U    -660.45830828274  2.0E-06  1.9E-06  4.4E-05
etot    7  N  N  1  U    -660.45830859225  3.1E-07  0.0E+00  0.0E+00
  
  
 Energy components, in hartrees:
   (A)  Nuclear repulsion............     283.89627280287
   (E)  Total one-electron terms.....   -1471.50644984018
   (F)    Electron-nuclear...........   -2128.84457229431
   (H)    Kinetic....................     657.33812245414
   (I)  Total two-electron terms.....     527.15186844506
   (J)    Coulomb....................     585.33936189808
   (K)    Exchange+Correlation.......     -58.18749345302
   (L)  Electronic energy............    -944.35458139512  (E+I)
   (M)  -V/T.........................       2.00474669889  (-(A+F+I)/H)
   (N)  Total energy.................    -660.45830859225  (A+L)
  
 SCFE: SCF energy: DFT(m06)      -660.45830859225 hartrees   iterations:   7
  
 
 HOMO energy:    -0.30482
 LUMO energy:    -0.06281
 
  Orbital energies (hartrees): 
   -89.31060   -19.22201   -19.21845   -14.44519   -14.43388    -8.26926
    -6.18773    -6.18648    -6.18521    -1.17040    -1.05421    -0.95779
    -0.92760    -0.67216    -0.58784    -0.57286    -0.54599    -0.50885
    -0.47479    -0.39273    -0.37814    -0.35824    -0.34567    -0.34267
    -0.30482    -0.06281    -0.03480    -0.02383    -0.01806     0.01330
     0.02121     0.02228     0.03389     0.04221     0.05585
 
  Peak memory usage:    679 Mb
  
  end of program scf
   
 Time(scf)  user:      168.0  user+sys:      168.0  wallclock:      186.1
  
  start of program der1a
  
  Peak memory usage:    597 Mb
  
  end of program der1a
   
 Time(der1a)  user:        0.0  user+sys:        0.0  wallclock:        0.4
  
  start of program rwr
  
  Peak memory usage:    454 Mb
  
  end of program rwr
   
 Time(rwr)  user:        1.0  user+sys:        1.0  wallclock:        2.0
  
  start of program der1b
  
   
  forces (hartrees/bohr) : total     
   
 atom  label           x              y              z
 ---- --------   -------------  -------------  -------------
    1 S1         -1.009150E-03   7.703193E-04   8.899065E-05
    2 O2          3.637783E-04   8.868001E-04   1.773541E-04
    3 O3          5.070364E-04   4.430173E-04  -3.833890E-04
    4 N4          2.555614E-04  -2.018046E-03  -2.584469E-03
    5 N5         -4.470378E-03  -1.329151E-03  -4.395686E-03
    6 H6         -9.124117E-04  -1.394763E-03  -1.628681E-03
    7 H7          6.321573E-05   1.243222E-03   3.399288E-03
    8 H8          1.154769E-04  -1.533020E-04   1.598393E-04
    9 H9          4.965067E-03   2.083572E-03   2.133927E-03
 -------------   -------------  -------------  -------------
     total       -1.218047E-04   5.316690E-04  -3.032825E-03
   
  Peak memory usage:    681 Mb
  
  end of program der1b
   
 Time(der1b)  user:       62.0  user+sys:       62.0  wallclock:       68.7
  
  start of program geopt
  
  geometry optimization step  5
  energy:            -660.45830859225 hartrees
  
  TS search will follow eigenvector   1 on this iteration
  
  Selected vector:  eigenvalue    -2.05789E-03

  1)  N5-S1-N4-H6( 17) -0.64626
      O2-S1-N4-H6( 11) -0.63600
  
  energy change:           8.1221E-05 .  (  5.0000E-05 )
  gradient maximum:        5.7482E-03 .  (  4.5000E-04 )
  gradient rms:            2.0780E-03 .  (  3.0000E-04 )
  displacement maximum:    1.0924E-01 .  (  1.8000E-03 )
  displacement rms:        3.0120E-02 .  (  1.2000E-03 )
  
  predicted energy change:  -2.8370E-04
  step size:     0.13803
  trust radius:  0.14142
  
  molecular structure not yet converged...
  
  center of mass moved by:
     x:     9.4302E-04     y:    -5.6859E-03     z:     2.8903E-03
  
  new geometry: 
                                   angstroms
  atom               x                 y                 z
  S1            0.0069651575     -0.0014592094      0.0937398563 
  O2            1.2814279102      0.0078911274      0.7507380099 
  O3           -1.2075657802     -0.0095694651      0.8396717137 
  N4           -0.0317064716      1.3315784557     -0.9427583664 
  N5           -0.0493180516     -1.3223402734     -0.8903237329 
  H6            0.6806032305      1.9906260228     -0.6320177117 
  H7            0.1478075039      1.0597643856     -1.9030435456 
  H8            0.7718553526     -1.4908218491     -1.4422005708 
  H9           -0.9103019989     -1.4623512075     -1.3481163837 
   
  nuclear repulsion energy.......     284.119500448 hartrees
  -------------------------------------------------
 /  end of geometry optimization iteration   5   /
 -------------------------------------------------
   
  Peak memory usage:    450 Mb
  
  end of program geopt
   
 Time(geopt)  user:        0.0  user+sys:        0.0  wallclock:        0.2
  
  start of program onee
  
  smallest eigenvalue of S:    3.894E-05
  number of canonical orbitals.....          208
  Peak memory usage:    593 Mb
  
  end of program onee
   
 Time(onee)  user:        0.0  user+sys:        0.0  wallclock:        0.3
  
  start of program probe
  
  Peak memory usage:    532 Mb
  
  end of program probe
   
 Time(probe)  user:        0.0  user+sys:        0.0  wallclock:        0.2
  
  start of program grid
  
  
   grid     grid set  grid #  grid sym
  ------    --------  ------  --------
  coarse        0        0        1
  medium        2        1        1
  fine          0        0        1
  ultrafine     4        2        1
  charge       -1        3        1
  gradient      4        2        1
  density       0        0        1
  DFT-fine    -11        4        1
  DFT-med.    -10        5        1
  DFT-grad    -12        6        1
  DFT-der2     -8        7        1
  DFT-cphf     -9        8        1
  LMP2-enrg     4        2        1
  LMP2-grad     2        1        1
  DFT-cphf2   -15        9        1
  PBF-dens      0        0        1
  plotting      0        0        1
  
   
  number of gridpoints: 
     atom        S1       O2       O3       N4       N5       H6       H7
  grid # 1      545      735      741      506      485      223      221
  grid # 2      545      735      741      506      485      224      221
  grid # 3       17     1358     1494      287      224     1235     1068
  grid # 4    22280    22280    22280    22280    22280    22280    22280
  grid # 5     2152     2152     2152     2152     2152     2152     2152
  grid # 6    21648    21648    21648    21648    21648    21648    21648
  grid # 7    65628    63040    63040    62394    62394    66806    66806
  grid # 8     3470     7568     7568     8972     8972     9848     9848
  grid # 9      802     1434     1434     3852     3852     2486     2486
   
  number of gridpoints: 
     atom        H8       H9    total
  grid # 1      221      221     3898
  grid # 2      221      221     3899
  grid # 3     1177     1190     8050
  grid # 4    22280    22280   200520
  grid # 5     2152     2152    19368
  grid # 6    21648    21648   194832
  grid # 7    66806    66806   583720
  grid # 8     9848     9848    75942
  grid # 9     2486     2486    21318
   
  Peak memory usage:    575 Mb
  
  end of program grid
   
 Time(grid)  user:        2.0  user+sys:        2.0  wallclock:        3.7
  
  start of program rwr
  
  Peak memory usage:    456 Mb
  
  end of program rwr
   
 Time(rwr)  user:        2.0  user+sys:        2.0  wallclock:        2.2
  
  start of program scf
  
  
       i  u  d  i  g                   
       t  p  i  c  r                                 RMS    maximum
       e  d  i  u  i                       energy  density   DIIS  
       r  t  s  t  d       total energy    change  change    error 
  
etot    1  N  N  1  U    -660.45469463547           3.2E-04  3.6E-03
etot    2  Y  Y  6  M    -660.45755692585  2.9E-03  5.5E-05  8.8E-04
etot    3  Y  Y  6  M    -660.45766250546  1.1E-04  1.7E-05  7.3E-04
etot    4  N  Y  1  U    -660.45769738101  3.5E-05  9.1E-06  1.3E-04
etot    5  N  Y  1  U    -660.45769985739  2.5E-06  3.3E-06  5.9E-05
etot    6  N  N  1  U    -660.45770016625  3.1E-07  0.0E+00  0.0E+00
  
  
 Energy components, in hartrees:
   (A)  Nuclear repulsion............     284.11950044775
   (E)  Total one-electron terms.....   -1471.90156127438
   (F)    Electron-nuclear...........   -2129.29021562159
   (H)    Kinetic....................     657.38865434721
   (I)  Total two-electron terms.....     527.32436066037
   (J)    Coulomb....................     585.52772532537
   (K)    Exchange+Correlation.......     -58.20336466500
   (L)  Electronic energy............    -944.57720061401  (E+I)
   (M)  -V/T.........................       2.00466854090  (-(A+F+I)/H)
   (N)  Total energy.................    -660.45770016625  (A+L)
  
 SCFE: SCF energy: DFT(m06)      -660.45770016625 hartrees   iterations:   6
  
 
 HOMO energy:    -0.30496
 LUMO energy:    -0.06217
 
  Orbital energies (hartrees): 
   -89.31101   -19.22252   -19.21991   -14.44228   -14.43351    -8.26968
    -6.18814    -6.18691    -6.18563    -1.17125    -1.05484    -0.96139
    -0.92874    -0.67446    -0.58891    -0.57826    -0.54526    -0.50927
    -0.47651    -0.39259    -0.37911    -0.35967    -0.34775    -0.34191
    -0.30496    -0.06217    -0.03436    -0.02381    -0.01753     0.01392
     0.02084     0.02452     0.03439     0.04214     0.05705
 
  Peak memory usage:    679 Mb
  
  end of program scf
   
 Time(scf)  user:      115.0  user+sys:      115.0  wallclock:      125.3
  
  start of program der1a
  
  Peak memory usage:    597 Mb
  
  end of program der1a
   
 Time(der1a)  user:        0.0  user+sys:        0.0  wallclock:        0.4
  
  start of program rwr
  
  Peak memory usage:    454 Mb
  
  end of program rwr
   
 Time(rwr)  user:        1.0  user+sys:        1.0  wallclock:        2.0
  
  start of program der1b
  
   
  forces (hartrees/bohr) : total     
   
 atom  label           x              y              z
 ---- --------   -------------  -------------  -------------
    1 S1          3.154136E-03   8.547165E-04  -1.385213E-03
    2 O2         -1.130203E-03  -1.036803E-03  -1.002361E-03
    3 O3         -1.115009E-03   4.484578E-04  -6.449716E-04
    4 N4          4.112881E-04   6.731747E-04  -1.365248E-03
    5 N5          1.619676E-02   5.067727E-03   1.241921E-02
    6 H6         -2.294693E-03  -2.436025E-03  -1.670900E-03
    7 H7          6.098673E-04   4.245164E-04   2.223878E-03
    8 H8          4.571210E-03  -2.332604E-05  -2.396925E-03
    9 H9         -2.064775E-02  -3.574919E-03  -9.899913E-03
 -------------   -------------  -------------  -------------
     total       -2.443982E-04   3.975186E-04  -3.722447E-03
   
  Peak memory usage:    681 Mb
  
  end of program der1b
   
 Time(der1b)  user:       63.0  user+sys:       63.0  wallclock:       68.2
  
  start of program geopt
  
  geometry optimization step  6
  energy:            -660.45770016625 hartrees
  ** restarting optimization from step    5 **
  
  Hessian eigenvalues: 
    1.76698E-03    1.36092E-02    1.73245E-02    2.94259E-02    1.19778E-01
    1.29259E-01    1.85104E-01    2.05898E-01    2.18979E-01    2.36852E-01
    2.82431E-01    3.27968E-01    4.38431E-01    4.60190E-01    4.90670E-01
    5.84800E-01    6.43979E-01    6.61259E-01    7.35511E-01    8.60255E-01
    1.06946E+00
  
  WARNING: Hessian has wrong number of negative eigenvalues
  
  TS search will follow eigenvector   1 on this iteration
  
  Selected vector:  eigenvalue     1.76698E-03

  1)  N5-S1-N4-H6( 17)  0.63251
      O2-S1-N4-H6( 11)  0.62239
  
  
  Level shifts adjusted to satisfy step-size constraints
   Step size:    0.0715733
   Cos(theta):   0.6151725
   Final level shift:  -3.4642357E-02
  
  energy change:           6.0843E-04 .  (  5.0000E-05 )
  gradient maximum:        5.7482E-03 .  (  4.5000E-04 )
  gradient rms:            2.0780E-03 .  (  3.0000E-04 )
  displacement maximum:    4.3214E-02 .  (  1.8000E-03 )
  displacement rms:        1.5619E-02 .  (  1.2000E-03 )
  
  predicted energy change:  -2.5514E-04
  step size:     0.07157
  trust radius:  0.07071
  center of mass moved by:
     x:    -1.1796E-16     y:     5.5511E-17     z:    -6.9389E-17
  
  new geometry: 
                                   angstroms
  atom               x                 y                 z
  S1            0.0056186036     -0.0028821068      0.0938516392 
  O2            1.2728920286      0.0105846277      0.7643937726 
  O3           -1.2205342407     -0.0157490599      0.8231757935 
  N4           -0.0163731048      1.3313536086     -0.9403562519 
  N5           -0.0385829999     -1.3254300612     -0.8867161989 
  H6            0.7021551316      1.9807864227     -0.6308454049 
  H7            0.1415029846      1.0654196179     -1.9002464082 
  H8            0.7690380482     -1.4654983377     -1.4733344319 
  H9           -0.9214587128     -1.5023467722     -1.3104677551 
   
  nuclear repulsion energy.......     284.070270987 hartrees
  -------------------------------------------------
 /  end of geometry optimization iteration   6   /
 -------------------------------------------------
   
  Peak memory usage:    450 Mb
  
  end of program geopt
   
 Time(geopt)  user:        0.0  user+sys:        0.0  wallclock:        0.2
  
  start of program onee
  
  smallest eigenvalue of S:    3.872E-05
  number of canonical orbitals.....          208
  Peak memory usage:    593 Mb
  
  end of program onee
   
 Time(onee)  user:        0.0  user+sys:        0.0  wallclock:        0.4
  
  start of program probe
  
  Peak memory usage:    532 Mb
  
  end of program probe
   
 Time(probe)  user:        0.0  user+sys:        0.0  wallclock:        0.2
  
  start of program grid
  
  
   grid     grid set  grid #  grid sym
  ------    --------  ------  --------
  coarse        0        0        1
  medium        2        1        1
  fine          0        0        1
  ultrafine     4        2        1
  charge       -1        3        1
  gradient      4        2        1
  density       0        0        1
  DFT-fine    -11        4        1
  DFT-med.    -10        5        1
  DFT-grad    -12        6        1
  DFT-der2     -8        7        1
  DFT-cphf     -9        8        1
  LMP2-enrg     4        2        1
  LMP2-grad     2        1        1
  DFT-cphf2   -15        9        1
  PBF-dens      0        0        1
  plotting      0        0        1
  
   
  number of gridpoints: 
     atom        S1       O2       O3       N4       N5       H6       H7
  grid # 1      545      734      740      500      484      223      221
  grid # 2      545      734      740      500      484      224      221
  grid # 3       18     1367     1483      283      221     1237     1079
  grid # 4    22280    22280    22280    22280    22280    22280    22280
  grid # 5     2152     2152     2152     2152     2152     2152     2152
  grid # 6    21648    21648    21648    21648    21648    21648    21648
  grid # 7    65628    63040    63040    62394    62394    66806    66806
  grid # 8     3470     7568     7568     8972     8972     9848     9848
  grid # 9      802     1434     1434     3852     3852     2486     2486
   
  number of gridpoints: 
     atom        H8       H9    total
  grid # 1      223      225     3895
  grid # 2      223      225     3896
  grid # 3     1173     1212     8073
  grid # 4    22280    22280   200520
  grid # 5     2152     2152    19368
  grid # 6    21648    21648   194832
  grid # 7    66806    66806   583720
  grid # 8     9848     9848    75942
  grid # 9     2486     2486    21318
   
  Peak memory usage:    575 Mb
  
  end of program grid
   
 Time(grid)  user:        3.0  user+sys:        3.0  wallclock:        4.7
  
  start of program rwr
  
  Peak memory usage:    456 Mb
  
  end of program rwr
   
 Time(rwr)  user:        2.0  user+sys:        2.0  wallclock:        2.4
  
  start of program scf
  
  
       i  u  d  i  g                   
       t  p  i  c  r                                 RMS    maximum
       e  d  i  u  i                       energy  density   DIIS  
       r  t  s  t  d       total energy    change  change    error 
  
etot    1  N  N  1  U    -660.45709867469           1.3E-04  2.2E-03
etot    2  Y  Y  6  M    -660.45802382642  9.3E-04  3.4E-05  4.7E-04
etot    3  N  Y  1  U    -660.45803843166  1.5E-05  1.3E-05  6.6E-04
etot    4  N  Y  1  U    -660.45807091908  3.2E-05  4.3E-06  7.7E-05
etot    5  N  N  1  U    -660.45807144930  5.3E-07  0.0E+00  0.0E+00
  
  
 Energy components, in hartrees:
   (A)  Nuclear repulsion............     284.07027098675
   (E)  Total one-electron terms.....   -1471.81704839011
   (F)    Electron-nuclear...........   -2129.18780277939
   (H)    Kinetic....................     657.37075438928
   (I)  Total two-electron terms.....     527.28870595406
   (J)    Coulomb....................     585.48852533522
   (K)    Exchange+Correlation.......     -58.19981938116
   (L)  Electronic energy............    -944.52834243605  (E+I)
   (M)  -V/T.........................       2.00469646244  (-(A+F+I)/H)
   (N)  Total energy.................    -660.45807144930  (A+L)
  
 SCFE: SCF energy: DFT(m06)      -660.45807144930 hartrees   iterations:   5
  
 
 HOMO energy:    -0.30436
 LUMO energy:    -0.06224
 
  Orbital energies (hartrees): 
   -89.31125   -19.22154   -19.21997   -14.44375   -14.43248    -8.26980
    -6.18828    -6.18703    -6.18576    -1.17077    -1.05451    -0.96005
    -0.92866    -0.67390    -0.58925    -0.57647    -0.54635    -0.50966
    -0.47563    -0.39220    -0.37856    -0.35938    -0.34610    -0.34314
    -0.30436    -0.06224    -0.03440    -0.02377    -0.01761     0.01400
     0.02136     0.02415     0.03431     0.04228     0.05717
 
  Peak memory usage:    679 Mb
  
  end of program scf
   
 Time(scf)  user:      112.0  user+sys:      112.0  wallclock:      121.9
  
  start of program der1a
  
  Peak memory usage:    597 Mb
  
  end of program der1a
   
 Time(der1a)  user:        0.0  user+sys:        0.0  wallclock:        0.4
  
  start of program rwr
  
  Peak memory usage:    454 Mb
  
  end of program rwr
   
 Time(rwr)  user:        1.0  user+sys:        1.0  wallclock:        2.3
  
  start of program der1b
  
   
  forces (hartrees/bohr) : total     
   
 atom  label           x              y              z
 ---- --------   -------------  -------------  -------------
    1 S1          1.952145E-03   9.933189E-04  -1.051196E-03
    2 O2         -1.424554E-03  -4.509172E-04  -4.207883E-04
    3 O3          4.691999E-04   3.693874E-04  -9.992730E-04
    4 N4         -1.544452E-03   8.258772E-04   2.899022E-03
    5 N5          1.097012E-02   3.167995E-03   5.248206E-03
    6 H6         -1.092745E-03  -1.597903E-03  -1.575252E-03
    7 H7          1.125392E-03  -7.271331E-04  -2.021588E-03
    8 H8          1.208413E-03   1.005595E-04  -3.485210E-04
    9 H9         -1.190255E-02  -2.085940E-03  -5.338962E-03
 -------------   -------------  -------------  -------------
     total       -2.390309E-04   5.952451E-04  -3.608352E-03
   
  Peak memory usage:    681 Mb
  
  end of program der1b
   
 Time(der1b)  user:       62.0  user+sys:       62.0  wallclock:       68.0
  
  start of program geopt
  
  geometry optimization step  7
  energy:            -660.45807144930 hartrees
  ** restarting optimization from step    5 **
  
  TS search will follow eigenvector   1 on this iteration
  
  Selected vector:  eigenvalue    -3.45566E-02

  1)  N4-S1-N5-H8( 14) -0.58288
      H8-S1-N5-H9( 21)  0.43252
      O2-S1-N4-H6( 11)  0.34927
      N5-S1-N4-H6( 17)  0.34346
      H6-S1-N4-H7( 20)  0.28380
         S1-N4-H7(  5)  0.20412
  
  
  Level shifts adjusted to satisfy step-size constraints
   Step size:    0.0355251
   Cos(theta):   0.7358930
   Final level shift:  -7.8515707E-02
  
  energy change:           2.3714E-04 .  (  5.0000E-05 )
  gradient maximum:        5.7482E-03 .  (  4.5000E-04 )
  gradient rms:            2.0780E-03 .  (  3.0000E-04 )
  displacement maximum:    2.2976E-02 .  (  1.8000E-03 )
  displacement rms:        7.7522E-03 .  (  1.2000E-03 )
  
  predicted energy change:  -1.6132E-04
  step size:     0.03553
  trust radius:  0.03536
  center of mass moved by:
     x:     0.0000E+00     y:    -1.8648E-17     z:     6.9389E-18
  
  new geometry: 
                                   angstroms
  atom               x                 y                 z
  S1            0.0063002855     -0.0013075710      0.0943155738 
  O2            1.2697192262      0.0121464497      0.7708890213 
  O3           -1.2248414555     -0.0170035378      0.8156720761 
  N4           -0.0145499686      1.3346277437     -0.9379762614 
  N5           -0.0314619309     -1.3232395351     -0.8859211705 
  H6            0.7118490932      1.9735197096     -0.6358209183 
  H7            0.1368179912      1.0648764092     -1.8965639232 
  H8            0.7704805246     -1.4533276880     -1.4838812415 
  H9           -0.9300560874     -1.5140539145     -1.3012579175 
   
  nuclear repulsion energy.......     284.074169720 hartrees
  -------------------------------------------------
 /  end of geometry optimization iteration   7   /
 -------------------------------------------------
   
  Peak memory usage:    450 Mb
  
  end of program geopt
   
 Time(geopt)  user:        0.0  user+sys:        0.0  wallclock:        0.2
  
  start of program onee
  
  smallest eigenvalue of S:    3.867E-05
  number of canonical orbitals.....          209
  Peak memory usage:    593 Mb
  
  end of program onee
   
 Time(onee)  user:        0.0  user+sys:        0.0  wallclock:        0.3
  
  start of program probe
  
  Peak memory usage:    532 Mb
  
  end of program probe
   
 Time(probe)  user:        0.0  user+sys:        0.0  wallclock:        0.2
  
  start of program grid
  
  
   grid     grid set  grid #  grid sym
  ------    --------  ------  --------
  coarse        0        0        1
  medium        2        1        1
  fine          0        0        1
  ultrafine     4        2        1
  charge       -1        3        1
  gradient      4        2        1
  density       0        0        1
  DFT-fine    -11        4        1
  DFT-med.    -10        5        1
  DFT-grad    -12        6        1
  DFT-der2     -8        7        1
  DFT-cphf     -9        8        1
  LMP2-enrg     4        2        1
  LMP2-grad     2        1        1
  DFT-cphf2   -15        9        1
  PBF-dens      0        0        1
  plotting      0        0        1
  
   
  number of gridpoints: 
     atom        S1       O2       O3       N4       N5       H6       H7
  grid # 1      545      734      740      500      486      223      220
  grid # 2      545      734      740      500      486      224      220
  grid # 3       18     1368     1484      285      225     1230     1078
  grid # 4    22280    22280    22280    22280    22280    22280    22280
  grid # 5     2152     2152     2152     2152     2152     2152     2152
  grid # 6    21648    21648    21648    21648    21648    21648    21648
  grid # 7    65628    63040    63040    62394    62394    66806    66806
  grid # 8     3470     7568     7568     8972     8972     9848     9848
  grid # 9      802     1434     1434     3852     3852     2486     2486
   
  number of gridpoints: 
     atom        H8       H9    total
  grid # 1      223      229     3900
  grid # 2      223      229     3901
  grid # 3     1174     1223     8085
  grid # 4    22280    22280   200520
  grid # 5     2152     2152    19368
  grid # 6    21648    21648   194832
  grid # 7    66806    66806   583720
  grid # 8     9848     9848    75942
  grid # 9     2486     2486    21318
   
  Peak memory usage:    575 Mb
  
  end of program grid
   
 Time(grid)  user:        3.0  user+sys:        3.0  wallclock:        3.6
  
  start of program rwr
  
  Peak memory usage:    456 Mb
  
  end of program rwr
   
 Time(rwr)  user:        2.0  user+sys:        2.0  wallclock:        2.4
  
  start of program scf
  
  
       i  u  d  i  g                   
       t  p  i  c  r                                 RMS    maximum
       e  d  i  u  i                       energy  density   DIIS  
       r  t  s  t  d       total energy    change  change    error 
  
etot    1  N  N  1  U    -660.45805804895           1.3E-03  9.9E-03
etot    2  Y  Y  6  M    -660.45823276086  1.7E-04  1.7E-04  3.9E-04
etot    3  Y  Y  6  M    -660.45821835067 -1.4E-05  2.3E-05  4.6E-04
etot    4  N  Y  1  U    -660.45842014628  2.0E-04  2.0E-05  8.8E-05
etot    5  N  Y  1  U    -660.45842203380  1.9E-06  1.2E-05  3.5E-05
etot    6  N  Y  1  U    -660.45842281002  7.8E-07  3.2E-06  2.9E-05
etot    7  N  N  1  U    -660.45842290673  9.7E-08  0.0E+00  0.0E+00
  
  
 Energy components, in hartrees:
   (A)  Nuclear repulsion............     284.07416972049
   (E)  Total one-electron terms.....   -1471.83743149545
   (F)    Electron-nuclear...........   -2129.21068954265
   (H)    Kinetic....................     657.37325804720
   (I)  Total two-electron terms.....     527.30483886823
   (J)    Coulomb....................     585.50208170152
   (K)    Exchange+Correlation.......     -58.19724283329
   (L)  Electronic energy............    -944.53259262722  (E+I)
   (M)  -V/T.........................       2.00469317062  (-(A+F+I)/H)
   (N)  Total energy.................    -660.45842290673  (A+L)
  
 SCFE: SCF energy: DFT(m06)      -660.45842290673 hartrees   iterations:   7
  
 
 HOMO energy:    -0.30469
 LUMO energy:    -0.06255
 
  Orbital energies (hartrees): 
   -89.31093   -19.22211   -19.21896   -14.44445   -14.43229    -8.26955
    -6.18802    -6.18678    -6.18551    -1.17075    -1.05456    -0.95908
    -0.92871    -0.67309    -0.58892    -0.57445    -0.54700    -0.50963
    -0.47524    -0.39256    -0.37848    -0.35881    -0.34590    -0.34308
    -0.30469    -0.06255    -0.03454    -0.02388    -0.01778     0.01330
     0.02114     0.02246     0.03377     0.04222     0.05642
 
  Peak memory usage:    679 Mb
  
  end of program scf
   
 Time(scf)  user:      145.0  user+sys:      145.0  wallclock:      160.0
  
  start of program der1a
  
  Peak memory usage:    597 Mb
  
  end of program der1a
   
 Time(der1a)  user:        0.0  user+sys:        0.0  wallclock:        0.6
  
  start of program rwr
  
  Peak memory usage:    454 Mb
  
  end of program rwr
   
 Time(rwr)  user:        1.0  user+sys:        1.0  wallclock:        2.0
  
  start of program der1b
  
   
  forces (hartrees/bohr) : total     
   
 atom  label           x              y              z
 ---- --------   -------------  -------------  -------------
    1 S1          7.369310E-04   9.286275E-04  -9.441428E-04
    2 O2         -2.944790E-04   1.051852E-04   1.227426E-04
    3 O3          2.770466E-05   9.183002E-05  -2.795224E-04
    4 N4         -2.596908E-03  -6.958374E-04   2.904362E-03
    5 N5          8.441709E-04   2.417183E-04  -2.906636E-04
    6 H6          8.032850E-04   3.592934E-04  -5.996344E-04
    7 H7          9.562641E-04  -8.383700E-04  -3.257317E-03
    8 H8          5.328328E-04   7.152062E-05  -1.754885E-04
    9 H9         -1.154075E-03   2.041020E-04  -5.617958E-04
 -------------   -------------  -------------  -------------
     total       -1.442731E-04   4.680696E-04  -3.081459E-03
   
  Peak memory usage:    681 Mb
  
  end of program der1b
   
 Time(der1b)  user:       63.0  user+sys:       63.0  wallclock:       69.1
  
  start of program geopt
  
  geometry optimization step  8
  energy:            -660.45842290673 hartrees
  
  TS search will follow eigenvector   1 on this iteration
  
  Selected vector:  eigenvalue    -8.30633E-02

  1)  N4-S1-N5-H8( 14) -0.59480
      O2-S1-N4-H6( 11)  0.45416
      N5-S1-N4-H6( 17)  0.44393
      H8-S1-N5-H9( 21)  0.33833
         O2-S1-N4(  9) -0.17710
      H6-S1-N4-H7( 20)  0.14980
  
  
  Level shifts adjusted to satisfy step-size constraints
   Step size:    0.0180849
   Cos(theta):   0.8730036
   Final level shift:  -1.2947082E-01
  
  energy change:          -1.1431E-04 .  (  5.0000E-05 )
  gradient maximum:        3.0789E-03 .  (  4.5000E-04 )
  gradient rms:            9.9379E-04 .  (  3.0000E-04 )
  displacement maximum:    9.9251E-03 .  (  1.8000E-03 )
  displacement rms:        3.9464E-03 .  (  1.2000E-03 )
  
  predicted energy change:  -5.0428E-05
  step size:     0.01808
  trust radius:  0.01768
  
  molecular structure not yet converged...
  
  center of mass moved by:
     x:    -1.8343E-04     y:    -1.3189E-03     z:     2.9776E-03
  
  new geometry: 
                                   angstroms
  atom               x                 y                 z
  S1            0.0067216776     -0.0012581228      0.0945667899 
  O2            1.2693188802      0.0145516535      0.7730469522 
  O3           -1.2241653699     -0.0184718182      0.8167263657 
  N4           -0.0169011425      1.3318454997     -0.9393412910 
  N5           -0.0305005565     -1.3221427783     -0.8877595030 
  H6            0.7115872206      1.9725525751     -0.6388058754 
  H7            0.1400081304      1.0587414633     -1.9016146859 
  H8            0.7713320800     -1.4469713719     -1.4885085375 
  H9           -0.9322699065     -1.5063277418     -1.3030360775 
   
  nuclear repulsion energy.......     284.054051695 hartrees
  -------------------------------------------------
 /  end of geometry optimization iteration   8   /
 -------------------------------------------------
   
  Peak memory usage:    450 Mb
  
  end of program geopt
   
 Time(geopt)  user:        0.0  user+sys:        0.0  wallclock:        0.2
  
  start of program onee
  
  smallest eigenvalue of S:    3.872E-05
  number of canonical orbitals.....          209
  Peak memory usage:    593 Mb
  
  end of program onee
   
 Time(onee)  user:        0.0  user+sys:        0.0  wallclock:        0.3
  
  start of program probe
  
  Peak memory usage:    532 Mb
  
  end of program probe
   
 Time(probe)  user:        0.0  user+sys:        0.0  wallclock:        0.2
  
  start of program grid
  
  
   grid     grid set  grid #  grid sym
  ------    --------  ------  --------
  coarse        0        0        1
  medium        2        1        1
  fine          0        0        1
  ultrafine     4        2        1
  charge       -1        3        1
  gradient      4        2        1
  density       0        0        1
  DFT-fine    -11        4        1
  DFT-med.    -10        5        1
  DFT-grad    -12        6        1
  DFT-der2     -8        7        1
  DFT-cphf     -9        8        1
  LMP2-enrg     4        2        1
  LMP2-grad     2        1        1
  DFT-cphf2   -15        9        1
  PBF-dens      0        0        1
  plotting      0        0        1
  
   
  number of gridpoints: 
     atom        S1       O2       O3       N4       N5       H6       H7
  grid # 1      546      734      740      503      488      223      220
  grid # 2      546      734      740      503      488      224      220
  grid # 3       18     1372     1484      287      229     1231     1074
  grid # 4    22280    22280    22280    22280    22280    22280    22280
  grid # 5     2152     2152     2152     2152     2152     2152     2152
  grid # 6    21648    21648    21648    21648    21648    21648    21648
  grid # 7    65628    63040    63040    62394    62394    66806    66806
  grid # 8     3470     7568     7568     8972     8972     9848     9848
  grid # 9      802     1434     1434     3852     3852     2486     2486
   
  number of gridpoints: 
     atom        H8       H9    total
  grid # 1      223      229     3906
  grid # 2      223      229     3907
  grid # 3     1173     1216     8084
  grid # 4    22280    22280   200520
  grid # 5     2152     2152    19368
  grid # 6    21648    21648   194832
  grid # 7    66806    66806   583720
  grid # 8     9848     9848    75942
  grid # 9     2486     2486    21318
   
  Peak memory usage:    575 Mb
  
  end of program grid
   
 Time(grid)  user:        2.0  user+sys:        2.0  wallclock:        3.7
  
  start of program rwr
  
  Peak memory usage:    456 Mb
  
  end of program rwr
   
 Time(rwr)  user:        2.0  user+sys:        2.0  wallclock:        2.5
  
  start of program scf
  
  
       i  u  d  i  g                   
       t  p  i  c  r                                 RMS    maximum
       e  d  i  u  i                       energy  density   DIIS  
       r  t  s  t  d       total energy    change  change    error 
  
etot    1  N  N  1  U    -660.45843703457           4.0E-05  3.9E-04
etot    2  N  Y  1  U    -660.45846398939  2.7E-05  8.4E-06  1.4E-04
etot    3  N  Y  1  U    -660.45846492404  9.3E-07  3.3E-06  1.2E-04
etot    4  N  N  1  U    -660.45846644962  1.5E-06  0.0E+00  0.0E+00
  
  
 Energy components, in hartrees:
   (A)  Nuclear repulsion............     284.05405169482
   (E)  Total one-electron terms.....   -1471.80247316304
   (F)    Electron-nuclear...........   -2129.16207601007
   (H)    Kinetic....................     657.35960284703
   (I)  Total two-electron terms.....     527.28995501860
   (J)    Coulomb....................     585.48334385743
   (K)    Exchange+Correlation.......     -58.19338883882
   (L)  Electronic energy............    -944.51251814443  (E+I)
   (M)  -V/T.........................       2.00471410715  (-(A+F+I)/H)
   (N)  Total energy.................    -660.45846644962  (A+L)
  
 SCFE: SCF energy: DFT(m06)      -660.45846644962 hartrees   iterations:   4
  
 
 HOMO energy:    -0.30483
 LUMO energy:    -0.06278
 
  Orbital energies (hartrees): 
   -89.31089   -19.22201   -19.21900   -14.44465   -14.43315    -8.26955
    -6.18802    -6.18677    -6.18551    -1.17072    -1.05439    -0.95917
    -0.92823    -0.67263    -0.58830    -0.57439    -0.54640    -0.50925
    -0.47518    -0.39274    -0.37846    -0.35875    -0.34579    -0.34319
    -0.30483    -0.06278    -0.03459    -0.02395    -0.01788     0.01328
     0.02113     0.02247     0.03370     0.04198     0.05596
 
  Peak memory usage:    679 Mb
  
  end of program scf
   
 Time(scf)  user:      108.0  user+sys:      108.0  wallclock:      116.6
  
  start of program der1a
  
  Peak memory usage:    597 Mb
  
  end of program der1a
   
 Time(der1a)  user:        0.0  user+sys:        0.0  wallclock:        0.4
  
  start of program rwr
  
  Peak memory usage:    454 Mb
  
  end of program rwr
   
 Time(rwr)  user:        1.0  user+sys:        1.0  wallclock:        1.9
  
  start of program der1b
  
   
  forces (hartrees/bohr) : total     
   
 atom  label           x              y              z
 ---- --------   -------------  -------------  -------------
    1 S1          6.249334E-04   5.723694E-04  -3.012300E-04
    2 O2         -3.458235E-04  -2.938455E-05  -2.913335E-04
    3 O3          1.187687E-04   8.504083E-05  -5.403311E-04
    4 N4         -4.732874E-04   4.624391E-05  -1.138527E-03
    5 N5          2.523653E-04  -5.986697E-05  -5.479975E-04
    6 H6         -4.998878E-04  -6.285437E-04  -9.704682E-04
    7 H7          2.299623E-04   2.639729E-04   1.017254E-03
    8 H8         -2.298096E-04   2.769700E-05   6.862197E-05
    9 H9          1.908664E-04   1.513603E-04  -3.451060E-04
 -------------   -------------  -------------  -------------
     total       -1.319122E-04   4.288891E-04  -3.049118E-03
   
  Peak memory usage:    681 Mb
  
  end of program der1b
   
 Time(der1b)  user:       61.0  user+sys:       61.0  wallclock:       69.0
  
  start of program geopt
  
  geometry optimization step  9
  energy:            -660.45846644962 hartrees
  
  TS search will follow eigenvector   1 on this iteration
  
[...]
                                             deloc  26: -0.04  0.00 -0.05  0.07
                                             deloc  36:  0.02  0.00 -0.04  0.04
                                             deloc  40: -0.03  0.00  0.02  0.04
                                             deloc  34:  0.02  0.00  0.01  0.02

  14. LP ( 2) O 3             7.36  0.14 -5.05  8.93    10.13  0.27 -6.79 12.20
                                             deloc  28: -1.15 -0.18  0.80  1.41
                                             deloc  35: -0.45  0.03  0.17  0.48
                                             deloc  26: -0.36 -0.08  0.19  0.41
                                             deloc  34: -0.29  0.13  0.12  0.34
                                             deloc  29: -0.19  0.01  0.18  0.26
                                             deloc  37: -0.17  0.00  0.09  0.19
                                             deloc  36: -0.01 -0.05  0.08  0.09
                                             deloc 125: -0.04 -0.01  0.03  0.05
                                             deloc  31: -0.02 -0.02  0.04  0.05
                                             deloc  32: -0.02  0.02  0.02  0.04
                                             deloc  39: -0.01  0.03 -0.01  0.03
                                             deloc  30: -0.01 -0.02  0.01  0.02
                                             deloc 154: -0.01  0.00  0.02  0.02

  15. LP ( 3) O 3             7.37  0.32 -4.76  8.78    10.27  0.21 -6.58 12.20
                                             deloc  26: -0.95  0.07  0.48  1.07
                                             deloc  29: -0.82  0.07  0.50  0.96
                                             deloc  34: -0.43 -0.09  0.18  0.47
                                             deloc  37: -0.20  0.04  0.21  0.29
                                             deloc  36: -0.08  0.02  0.21  0.23
                                             deloc  32: -0.10  0.09  0.14  0.20
                                             deloc  35: -0.13 -0.09 -0.03  0.16
                                             deloc  12: -0.11  0.00  0.02  0.11
                                             deloc 154: -0.03  0.04  0.04  0.07
                                             deloc 155: -0.02 -0.02  0.00  0.03
                                             deloc 221:  0.01  0.01  0.02  0.02
                                             deloc  39: -0.01 -0.01 -0.01  0.02

  16. LP ( 1) N 4             4.71-12.80  7.00 15.33     5.01-13.74  7.54 16.46
                                             deloc  27: -0.10  0.29 -0.17  0.35
                                             deloc  36: -0.12  0.24 -0.14  0.30
                                             deloc  26: -0.05  0.13 -0.14  0.20
                                             deloc  29:  0.01  0.09 -0.02  0.09
                                             deloc 196: -0.03  0.02  0.07  0.07
                                             deloc  38: -0.01  0.05  0.01  0.06
                                             deloc  12: -0.02  0.03 -0.04  0.06
                                             deloc  35:  0.01  0.04 -0.04  0.05
                                             deloc  31: -0.01 -0.01 -0.04  0.04
                                             deloc  28: -0.01 -0.03  0.02  0.04
                                             deloc 184: -0.02 -0.03  0.00  0.04
                                             deloc  14:  0.00  0.02 -0.02  0.03
                                             deloc  20:  0.02  0.00 -0.01  0.03
                                             deloc  30:  0.01  0.02  0.01  0.03
                                             deloc  37: -0.01  0.01 -0.02  0.02

  17. LP ( 1) N 5            -0.10 12.80  4.21 13.48    -0.09 14.41  4.77 15.18
                                             deloc  28: -0.02 -0.49 -0.22  0.53
                                             deloc  38:  0.00 -0.48 -0.17  0.51
                                             deloc  26:  0.00 -0.18 -0.06  0.19
                                             deloc  14:  0.03 -0.08 -0.06  0.10
                                             deloc  27:  0.00 -0.08 -0.02  0.09
                                             deloc  11: -0.03 -0.07 -0.04  0.08
                                             deloc 220:  0.07  0.00  0.04  0.08
                                             deloc  35:  0.01  0.00 -0.08  0.08
                                             deloc 208: -0.06  0.00  0.05  0.08
                                             deloc  30:  0.00 -0.07  0.01  0.07
                                             deloc 124:  0.00 -0.04  0.01  0.04
                                             deloc 126:  0.00 -0.04  0.00  0.04
                                             deloc  33: -0.03 -0.02  0.00  0.03
                                             deloc  29:  0.00  0.02  0.02  0.03
                                             deloc  32:  0.02 -0.01 -0.01  0.03

  18. BD ( 1) S 1- O 2       -7.71 -0.07 -4.93  9.15    -7.85 -0.03 -5.13  9.38
                                             deloc  28: -0.02 -0.27  0.18  0.33
                                             deloc  29: -0.02  0.21  0.13  0.25
                                             deloc  27:  0.12  0.00 -0.13  0.18
                                             deloc  11:  0.01  0.02 -0.02  0.03
                                             deloc  33:  0.01  0.02  0.02  0.03

  19. BD ( 1) S 1- O 3        7.37  0.08 -5.17  9.00     7.53  0.07 -5.35  9.24
                                             deloc  29:  0.03  0.23  0.15  0.28
                                             deloc  28:  0.02 -0.22  0.14  0.26
                                             deloc  26: -0.13  0.00 -0.13  0.18
                                             deloc  32: -0.01  0.02  0.02  0.03
                                             deloc  15: -0.01 -0.02 -0.02  0.03

  20. BD ( 1) S 1- N 4       -0.31 -7.70  5.66  9.56    -0.23 -7.95  5.67  9.77
                                             deloc  29:  0.01  0.29  0.25  0.38
                                             deloc  26: -0.27 -0.04 -0.14  0.30
                                             deloc  27:  0.23 -0.04 -0.13  0.26
                                             deloc  31: -0.01  0.04  0.07  0.08
                                             deloc  30: -0.06 -0.03 -0.04  0.08
                                             deloc  14:  0.02  0.00 -0.01  0.02

  21. BD ( 1) S 1- N 5        0.13  7.42  5.76  9.39     0.11  7.67  5.77  9.60
                                             deloc  28:  0.00 -0.27  0.24  0.36
                                             deloc  27:  0.22  0.04 -0.13  0.26
                                             deloc  26: -0.20  0.04 -0.11  0.23
                                             deloc  32: -0.07 -0.01  0.04  0.08
                                             deloc  33:  0.07  0.00  0.02  0.08
                                             deloc  17:  0.00  0.02 -0.04  0.04
                                             deloc  30:  0.00 -0.02  0.00  0.02

  22. BD ( 1) N 4- H 6       -4.18-14.74  6.18 16.53    -4.20-14.97  6.37 16.80
                                             deloc  29:  0.00  0.08 -0.02  0.08
                                             deloc  28:  0.00  0.06 -0.05  0.08
                                             deloc  26:  0.02  0.05 -0.02  0.06
                                             deloc  36:  0.01  0.03 -0.03  0.04
                                             deloc  38:  0.00  0.04 -0.01  0.04
                                             deloc  27:  0.01  0.01 -0.03  0.03
                                             deloc  39:  0.00 -0.02  0.02  0.02

  23. BD ( 1) N 4- H 7       -0.77 -9.35 13.48 16.42    -0.80 -9.60 13.64 16.70
                                             deloc  28:  0.00  0.07 -0.05  0.09
                                             deloc  27:  0.03  0.05 -0.05  0.07
                                             deloc  38: -0.01  0.04 -0.06  0.07
                                             deloc  29:  0.00  0.02 -0.05  0.06
                                             deloc  41:  0.00 -0.01  0.03  0.04
                                             deloc  26: -0.02  0.02 -0.02  0.03
                                             deloc  16:  0.03 -0.01  0.01  0.03

  24. BD ( 1) N 5- H 8       -4.45 11.63 11.05 16.65    -4.42 11.83 11.19 16.88
                                             deloc  27:  0.04 -0.09 -0.09  0.13
                                             deloc  29: -0.01 -0.07 -0.04  0.08
                                             deloc  37:  0.01 -0.03 -0.01  0.03
                                             deloc 221: -0.03  0.00  0.00  0.03
                                             deloc  39:  0.00  0.02  0.01  0.02
                                             deloc  38: -0.01  0.00 -0.02  0.02
                                             deloc  41: -0.01 -0.01  0.02  0.02

  25. BD ( 1) N 5- H 9        5.41 11.91 10.09 16.52     5.39 12.10 10.27 16.76
                                             deloc  26: -0.04 -0.09 -0.09  0.14
                                             deloc  29:  0.00 -0.06 -0.04  0.08
                                             deloc  37: -0.02 -0.03 -0.02  0.04
                                             deloc  17:  0.01  0.03 -0.02  0.03
                                             deloc  39:  0.00  0.03  0.01  0.03
                                             deloc 209:  0.02  0.00 -0.01  0.03

   Residual nuclear charge   -0.15  0.02 -6.72  6.72    -0.15  0.02 -6.72  6.72
                            ----------------------------------------------------
         Net dipole moment   -1.70 -0.73  6.89  7.13    -1.24 -0.09  1.48  1.93
 Delocalization correction                              -0.46 -0.64  5.41  5.47
                            ----------------------------------------------------
       Total dipole moment   -1.70 -0.73  6.89  7.13    -1.70 -0.73  6.89  7.13


 NATURAL RESONANCE THEORY ANALYSIS:

 Maximum reference structures : 20
 Maximum resonance structures : 300
 Memory requirements : 3223545 words of 99830816 available

 0 candidate reference structure(s) calculated by SR LEWIS
 Possible hypervalency for atom 1; restart with full density matrix
 8 candidate reference structure(s) calculated by SR LEWIS
 Initial loops searched 8 bonding pattern(s); 8 were retained
 Delocalization list threshold set to 2.83 kcal/mol for reference 1
 Delocalization list threshold set to 1.00 kcal/mol for reference 2
 Delocalization list threshold set to 10.52 kcal/mol for reference 3
 Delocalization list threshold set to 2.65 kcal/mol for reference 4
 Delocalization list threshold set to 2.42 kcal/mol for reference 5
 Delocalization list threshold set to 3.03 kcal/mol for reference 6
 Delocalization list threshold set to 3.01 kcal/mol for reference 7
 Delocalization list threshold set to 6.24 kcal/mol for reference 8
 Reference   1:  rho*=1.62368, f(w)=0.74726 converged after  46 iterations
 Reference   2:  rho*=1.11738, f(w)=0.78955 converged after  49 iterations
 Reference   3:  rho*=1.81367, f(w)=0.19989 converged after  14 iterations
 Reference   4:  rho*=1.60785, f(w)=0.75649 converged after  39 iterations
 Reference   5:  rho*=1.65762, f(w)=0.70071 converged after  42 iterations
 Reference   6:  rho*=1.76172, f(w)=0.37108 converged after  22 iterations
 Reference   7:  rho*=1.58206, f(w)=0.79524 converged after  52 iterations
 Reference   8:  rho*=2.23978, f(w)=0.39783 converged after  30 iterations
 Multi-ref( 8):  D(W)=0.00839, F(W)=0.08285 converged after 239 iterations
 2 reference structures have low weight (<35.0% of 19.0%); discarded
 Multi-ref( 6):  D(W)=0.00840, F(W)=0.08259 converged after 234 iterations

                                                fractional accuracy f(w)
                  non-Lewis             -------------------------------------
  Ref     Wgt      density      d(0)      all NBOs     val+core     valence
 ----------------------------------------------------------------------------
   1    0.18948    1.62368    0.06528     0.74726      0.88776      0.88776
   2    0.31157    1.11738    0.03981     0.78955      0.88491      0.88492
   4    0.13064    1.60785    0.06658     0.75649      0.89089      0.89089
   5    0.14357    1.65762    0.06609     0.70071      0.87987      0.87988
   6    0.14255    1.76172    0.07352     0.37108      0.73562      0.73562
   7    0.08219    1.58206    0.06694     0.79524      0.90310      0.90310


 TOPO matrix for the leading resonance structure:

     Atom  1   2   3   4   5   6   7   8   9
     ---- --- --- --- --- --- --- --- --- ---
   1.  S   0   1   1   1   1   0   0   0   0
   2.  O   1   3   0   0   0   0   0   0   0
   3.  O   1   0   3   0   0   0   0   0   0
   4.  N   1   0   0   1   0   1   1   0   0
   5.  N   1   0   0   0   1   0   0   1   1
   6.  H   0   0   0   1   0   0   0   0   0
   7.  H   0   0   0   1   0   0   0   0   0
   8.  H   0   0   0   0   1   0   0   0   0
   9.  H   0   0   0   0   1   0   0   0   0

         Resonance
    RS   Weight(%)                  Added(Removed)
 ---------------------------------------------------------------------------
    1*(6)  36.02
    2*(2)  10.23    S  1- O  3, ( S  1- N  5), ( O  3),  N  5
    3*(4)   9.88    S  1- O  2, ( S  1- N  5), ( O  2),  N  5
    4*(2)   9.77    S  1- O  2, ( S  1- N  4), ( O  2),  N  4
    5*(2)   9.69   ( S  1- O  2),  S  1- O  3,  O  2, ( O  3)
    6*(2)   7.46    S  1- O  2, ( S  1- O  3), ( O  2),  O  3
    7 (3)   5.15    S  1- O  3, ( S  1- N  4), ( O  3),  N  4
    8       1.94    S  1- O  2,  S  1- O  2, ( S  1- O  3), ( S  1- N  4),
                   ( O  2), ( O  2),  O  3,  N  4
    9       1.31   ( S  1- O  2),  S  1- O  3,  S  1- O  3, ( S  1- N  5),
                    O  2, ( O  3), ( O  3),  N  5
   10       0.95    S  1- O  2,  S  1- O  3, ( S  1- N  4), ( S  1- N  5),
                   ( O  2), ( O  3),  N  4,  N  5
   11       0.85    S  1- O  3,  S  1- O  3, ( S  1- N  4), ( S  1- N  5),
                   ( O  3), ( O  3),  N  4,  N  5
   12       0.67   ( S  1- O  2),  S  1- O  3,  S  1- O  3, ( S  1- N  4),
                    O  2, ( O  3), ( O  3),  N  4
   13       0.51   ( S  1- O  3),  S  1- N  4,  O  3, ( N  4)
   14       0.51   ( S  1- O  2),  S  1- O  3, ( S  1- N  4),  S  1- N  5,
                    O  2, ( O  3),  N  4, ( N  5)
   15       0.49   ( S  1- N  4),  S  1- N  5,  N  4, ( N  5)
   16       0.47    S  1- O  2,  S  1- O  2, ( S  1- N  4), ( S  1- N  5),
                   ( O  2), ( O  2),  N  4,  N  5
   17       0.37    S  1- O  2,  S  1- O  2, ( S  1- O  3), ( S  1- N  5),
                   ( O  2), ( O  2),  O  3,  N  5
   18       0.36    S  1- O  2, ( S  1- O  3), ( S  1- N  4),  S  1- N  5,
                   ( O  2),  O  3,  N  4, ( N  5)
   19       0.33   ( S  1- O  2),  S  1- N  5,  O  2, ( N  5)
   20       0.32   ( S  1- O  2),  S  1- N  4,  O  2, ( N  4)
   21       0.31   ( S  1- O  3),  S  1- N  5,  O  3, ( N  5)
   22       0.24    S  1- N  4, ( S  1- N  5), ( N  4),  N  5
   23       0.22    S  1- O  2, ( S  1- O  3), ( S  1- N  4), ( S  1- N  5),
                    S  1, ( O  2),  O  3,  N  4
   24       0.21   ( S  1- O  3), ( S  1- N  5),  S  1,  O  3
   25       0.19   ( S  1- O  3),  S  1- N  5, ( N  5- H  8),  H  8
   26       0.18   ( S  1- O  3),  S  1- N  5, ( N  5- H  9), ( O  2),
                    O  3,  H  9
   27       0.17   ( S  1- O  2), ( S  1- N  5),  S  1,  O  2
   28       0.14   ( S  1- O  3), ( S  1- N  4),  S  1, ( O  2),  O  3,
                    N  4
   29       0.14   ( S  1- O  3), ( S  1- N  4),  S  1,  N  4
   30       0.12   ( S  1- N  4), ( S  1- N  5),  S  1,  N  4
   31       0.11   ( S  1- O  2),  S  1- O  3,  S  1- N  4, ( S  1- N  5),
                    O  2, ( O  3), ( N  4),  N  5
   32-60    0.70
 ---------------------------------------------------------------------------
          100.00   * Total *                [* = reference structure]


 Natural Bond Order:  (total/covalent/ionic)

     Atom       1      2      3      4      5      6      7      8      9
     ----   ------ ------ ------ ------ ------ ------ ------ ------ ------
   1.  S  t 0.0150 1.2089 1.2020 0.7900 0.7692 0.0000 0.0000 0.0000 0.0000
          c   ---  0.5794 0.6021 0.5560 0.4813 0.0000 0.0000 0.0000 0.0000
          i   ---  0.6295 0.6000 0.2340 0.2878 0.0000 0.0000 0.0000 0.0000

   2.  O  t 1.2089 2.7863 0.0000 0.0000 0.0000 0.0000 0.0000 0.0000 0.0000
          c 0.5794   ---  0.0000 0.0000 0.0000 0.0000 0.0000 0.0000 0.0000
          i 0.6295   ---  0.0000 0.0000 0.0000 0.0000 0.0000 0.0000 0.0000

   3.  O  t 1.2020 0.0000 2.7927 0.0000 0.0000 0.0000 0.0000 0.0000 0.0000
          c 0.6021 0.0000   ---  0.0000 0.0000 0.0000 0.0000 0.0000 0.0000
          i 0.6000 0.0000   ---  0.0000 0.0000 0.0000 0.0000 0.0000 0.0000

   4.  N  t 0.7900 0.0000 0.0000 1.2094 0.0000 0.9999 1.0000 0.0000 0.0000
          c 0.5560 0.0000 0.0000   ---  0.0000 0.5987 0.6130 0.0000 0.0000
          i 0.2340 0.0000 0.0000   ---  0.0000 0.4013 0.3870 0.0000 0.0000

   5.  N  t 0.7692 0.0000 0.0000 0.0000 1.2282 0.0000 0.0000 0.9972 0.9975
          c 0.4813 0.0000 0.0000 0.0000   ---  0.0000 0.0000 0.5946 0.5880
          i 0.2878 0.0000 0.0000 0.0000   ---  0.0000 0.0000 0.4026 0.4095

   6.  H  t 0.0000 0.0000 0.0000 0.9999 0.0000 0.0000 0.0000 0.0000 0.0000
          c 0.0000 0.0000 0.0000 0.5987 0.0000   ---  0.0000 0.0000 0.0000
          i 0.0000 0.0000 0.0000 0.4013 0.0000   ---  0.0000 0.0000 0.0000

   7.  H  t 0.0000 0.0000 0.0000 1.0000 0.0000 0.0000 0.0000 0.0000 0.0000
          c 0.0000 0.0000 0.0000 0.6130 0.0000 0.0000   ---  0.0000 0.0000
          i 0.0000 0.0000 0.0000 0.3870 0.0000 0.0000   ---  0.0000 0.0000

   8.  H  t 0.0000 0.0000 0.0000 0.0000 0.9972 0.0000 0.0000 0.0019 0.0000
          c 0.0000 0.0000 0.0000 0.0000 0.5946 0.0000 0.0000   ---  0.0000
          i 0.0000 0.0000 0.0000 0.0000 0.4026 0.0000 0.0000   ---  0.0000

   9.  H  t 0.0000 0.0000 0.0000 0.0000 0.9975 0.0000 0.0000 0.0000 0.0018
          c 0.0000 0.0000 0.0000 0.0000 0.5880 0.0000 0.0000 0.0000   ---
          i 0.0000 0.0000 0.0000 0.0000 0.4095 0.0000 0.0000 0.0000   ---


 Natural Atomic Valencies:

                      Co-    Electro-
     Atom  Valency  Valency  Valency
     ----  -------  -------  -------
   1.  S    3.9701   2.2187   1.7513
   2.  O    1.2089   0.5794   0.6295
   3.  O    1.2020   0.6021   0.6000
   4.  N    2.7899   1.7676   1.0223
   5.  N    2.7638   1.6639   1.0999
   6.  H    0.9999   0.5987   0.4013
   7.  H    1.0000   0.6130   0.3870
   8.  H    0.9972   0.5946   0.4026
   9.  H    0.9975   0.5880   0.4095


 $NRTSTR
   STR        ! Wgt = 36.02%
     LONE 2 3 3 3 4 1 5 1 END
     BOND S 1 2 S 1 3 S 1 4 S 1 5 S 4 6 S 4 7 S 5 8 S 5 9 END
   END
   STR        ! Wgt = 10.23%
     LONE 2 3 3 2 4 1 5 2 END
     BOND S 1 2 D 1 3 S 1 4 S 4 6 S 4 7 S 5 8 S 5 9 END
   END
   STR        ! Wgt =  9.88%
     LONE 2 2 3 3 4 1 5 2 END
     BOND D 1 2 S 1 3 S 1 4 S 4 6 S 4 7 S 5 8 S 5 9 END
   END
   STR        ! Wgt =  9.77%
     LONE 2 2 3 3 4 2 5 1 END
     BOND D 1 2 S 1 3 S 1 5 S 4 6 S 4 7 S 5 8 S 5 9 END
   END
   STR        ! Wgt =  9.69%
     LONE 2 4 3 2 4 1 5 1 END
     BOND D 1 3 S 1 4 S 1 5 S 4 6 S 4 7 S 5 8 S 5 9 END
   END
   STR        ! Wgt =  7.46%
     LONE 2 2 3 4 4 1 5 1 END
     BOND D 1 2 S 1 4 S 1 5 S 4 6 S 4 7 S 5 8 S 5 9 END
   END
 $END

 Maximum scratch memory used by NBO was 3831405 words
 Maximum scratch memory used by GENNBO was 269445 words

 Total cpu seconds     user:    9063.000   user+sys:    9064.000
  
 Total elapsed time:    20711 seconds

Job tse completed on d6copt016.crc.nd.edu at Mon Apr  7 18:12:53 2014
