Job 1ZDMPfromJCTCSI_loner1 started on seskscpn101.prim.scp at Wed Oct 18 10:21:03 2023
jobid: seskscpn324-0-652fb176

  +--------------------------------------------------------------------+
  |  Jaguar version 10.6, release  12                                  |
  |                                                                    |
  |  Copyright Schrodinger, Inc.                                       |
  |  All Rights Reserved.                                              |
  |                                                                    |
  |  The following have contributed to Jaguar (listed alphabetically): |
  |  Mike Beachy, Art Bochevarov, Dale Braden, Yixiang Cao,            |
  |  Alan Chien, Chris Cortis, Rich Friesner, Bill Goddard,            |
  |  Hod Greeley, Tom Hughes, Leif Jacobson, Jean-Marc Langlois,       |
  |  Daniel Levine, Daniel Mainz, Rob Murphy, Dean Philipp,            |
  |  Tom Pollard, Murco Ringnalda, Mark Watson, Haoyu Yu.              |
  |                                                                    |
  |  Use of this program should be acknowledged in publications as:    |
  |                                                                    |
  |  Jaguar, version 10.6, Schrodinger, Inc., New York, NY, 2019.      |
  |                                                                    |
  |  A. D. Bochevarov, E. Harder, T. F. Hughes, J. R. Greenwood,       |
  |  D. A. Braden, D. M. Philipp, D. Rinaldo, M. D. Halls,             |
  |  J. Zhang, R. A. Friesner, "Jaguar: A High-Performance Quantum     |
  |  Chemistry Software Program with Strengths in Life and Materials   |
  |  Sciences", Int. J. Quantum Chem., 2013, 113(18), 2110-2142.       |
  +--------------------------------------------------------------------+
  
  start of program pre
  
  Job name: 1ZDMPfromJCTCSI_loner1
  Executables used: /opt/scp/software/schrodinger/2019-4/jaguar-v10.6/bin/Linux-x86_64
  Temporary files : /scratch/kzdq760/1ZDMPfromJCTCSI_loner1#seskscpn324-0-652fb176
  Maestro file (input):  1ZDMPfromJCTCSI_loner1.mae
  Maestro file (output): 1ZDMPfromJCTCSI_loner1.01.mae
  
 Contents of input file: &gen section only
 ----------------Contents start----------------
&gen
isymm=0
basis=LACVP**
gdftgrad=-13
gdftmed=-13
molchg=1
gdftfine=-13
dftname=B3LYP
eunit=2
ifreq=1
iacc=1
&
 -----------------Contents end-----------------
 
  basis set:             lacvp**                         
  net molecular charge:    1
  multiplicity:            1
  
  keygrid settings 
    wispc.....   7.500E-01
    ldens.....   0
    denspc....   7.500E-01
  
   grid     daf set  nls  grid set  Q type
  ------    -------  ---  --------  ------
  coarse       1      1       1        1
  medium       2      2       2        1
  fine         3      2       3        0
  ultrafine    4      2       4        1
  charge       0      1       0        1
  gradient     5      2       4        1
  density      0      1       0        0
  DFT-fine     0      1     -13        0
  DFT-med.     0      1     -13        0
  DFT-grad     0      1     -13        0
  DFT-der2     0      1      -8        0
  DFT-cphf     0      1      -9        0
  LMP2-enrg    4      2       4        1
  LMP2-grad    5      2       2        1
  DFT-cphf2    0      1     -15        0
  PBF-dens     0      1       0        0
  plotting     0      1       0        0
  Rel-grad     0      1     -17        0
  
  idftgrdm  100
  ndftgrdm   50    0    0
  idftgrdf  111
  ndftgrdf   85    0    0
  idftgrdg  111
  ndftgrdg   80    3    0
  idftgrdu  433
  ndftgrdu  105    0    0
  idftgrdd  433
  ndftgrdd  105    0    0
  idftgrdc  433
  ndftgrdc   26    0    0
  idftgrdp  433
  ndftgrdp   18    0    0
  
  Using up to   3 threads per process
  
  This run will use ECP on 1 atom
  number of basis functions....          340
  
 Input geometry:
                                   angstroms
  atom               x                 y                 z
  Rh1           0.0000000000      0.0000000000      0.0000000000 
  O2            0.0000000000      0.0000000000      2.2154500000 
  C3            1.1327700000      0.0000000000      2.7330900000 
  N4            2.2649000000      0.0844000000      2.0176700000 
  C5            2.2198700000      0.3315700000      0.5969800000 
  C6            1.6853900000      1.5729500000      0.1530500000 
  C7            3.0661500000     -0.4838800000     -0.2106900000 
  N8            3.7482100000     -1.1674400000     -0.8648800000 
  H9            1.5431900000      2.3473500000      0.9008300000 
  H10           1.9605400000      1.9303500000     -0.8324900000 
  H11           3.1596000000      0.0721500000      2.4953600000 
  H12           1.2522800000     -0.0753300000      3.8196400000 
  P13          -0.2564500000     -0.1285900000     -2.2595600000 
  P14          -0.3226600000     -2.3535400000     -0.0023700000 
  C15          -0.7065700000     -1.8522200000     -2.6770500000 
  C16          -0.7390900000     -2.7936400000     -1.7281500000 
  H17          -1.5569400000      0.1072200000     -0.0935700000 
  H18           0.0178600000      1.6327400000     -0.0935900000 
  C19          -1.5736700000      0.9068900000     -3.0066100000 
  C20           1.2302100000      0.2170300000     -3.2867200000 
  C21          -1.7346400000     -2.9372200000      1.0172400000 
  C22           1.0613000000     -3.4866600000      0.4361500000 
  H23          -1.3377000000      1.9613100000     -2.8401900000 
  H24           1.0225500000     -0.0264200000     -4.3334300000 
  H25          -1.8836400000     -4.0152900000      0.9083400000 
  H26           1.2864100000     -3.3788900000      1.5011600000 
  H27          -0.9348300000     -2.0828600000     -3.7176600000 
  H28          -0.9943900000     -3.8257800000     -1.9675300000 
  H29           1.9523900000     -3.2265900000     -0.1402400000 
  H30           0.7889900000     -4.5282200000      0.2403100000 
  H31          -1.5271500000     -2.7054100000      2.0653900000 
  H32          -2.6423400000     -2.4068900000      0.7220200000 
  H33          -2.5293200000      0.6866200000     -2.5270500000 
  H34          -1.6465000000      0.7208100000     -4.0823000000 
  H35           1.4842000000      1.2792000000     -3.2252000000 
  H36           2.0785000000     -0.3765000000     -2.9386000000 
   
  principal moments of inertia:
        amu*angstrom^2:     1123.90669     1385.88563     1641.46027
                g*cm^2: 1.86629073E-37 2.30131694E-37 2.72570856E-37
   
  rotational constants:
               cm^(-1):      0.01499914      0.01216380      0.01026990
                   GHz:      0.44966278      0.36466141      0.30788379
   
  Molecular weight:     349.01 amu
   
  Stoichiometry: RhC10P2N2H20O
  Molecular Point Group: C1      
  Point Group used: C1 (symmetry turned off)
  
  nuclear repulsion energy.......    1700.693734033 hartrees
  
  Detected an organometallic with only one TM atom. 
  
  Oxidation state on metal       1 is     3
  Formal multiplet on metal      1 is     1
  Formal charge on ligand        4 is    -1
  Formal multiplet on ligand     4 is     1
  Formal charge on ligand        5 is    -1
  Formal multiplet on ligand     5 is     1
  
 
  Will use High-Quality Initial guess for organometallics
       including d-d repulsion (iguess=30)
 
 Non-default options chosen:
   SCF calculation type: DFT(b3lyp)                  
   DFT=Becke_3_Parameter/HF+Slater+Becke88+VWN+LYP (B3LYP)
   Vibrational frequencies and related properties will be computed
      from analytic second derivatives
   IR intensities will be computed
   Thermochemical properties will be computed
   Thermochemical data will be printed in Joules
   Molecular symmetry not used
   Highest accuracy cutoffs used in SCF
  
 Temporary integer options set:
     21= -1  73=  2
  
  Peak memory usage:   1275 Mb
  
  end of program pre
   
 Time(pre)  user:        1.7  user+sys:        1.7  wallclock:        1.4
  
  start of program onee
  
  smallest eigenvalue of S:    1.099E-03
  number of canonical orbitals.....          340
  Peak memory usage:   1310 Mb
  
  end of program onee
   
 Time(onee)  user:        1.4  user+sys:        1.4  wallclock:        0.5
  
  start of program hfig
  
  initial wavefunction generated automatically from atomic wavefunctions
  Only one state below 0.010000
  Skip d-d repulsion considerations 
 
  Irreducible     Total no   No of occupied orbitals 
  representation  orbitals   Shell_1  Shell_2    ...
  No Symm          340         74
  ------------------------
  Orbital occupation/shell    1.000
 
  Peak memory usage:   1231 Mb
  
  end of program hfig
   
 Time(hfig)  user:        0.8  user+sys:        0.8  wallclock:        0.4
  
  start of program probe
  
  Peak memory usage:   1229 Mb
  
  end of program probe
   
 Time(probe)  user:        0.5  user+sys:        0.5  wallclock:        0.2
  
  start of program grid
  
   grid     grid set  grid #  grid sym
  ------    --------  ------  --------
  coarse        0        0        1
  medium        2        1        1
  fine          0        0        1
  ultrafine     4        2        1
  charge        0        0        1
  gradient      4        2        1
  density       0        0        1
  DFT-fine    -13        3        1
  DFT-med.    -13        3        1
  DFT-grad    -13        3        1
  DFT-der2     -8        4        1
  DFT-cphf     -9        5        1
  LMP2-enrg     4        2        1
  LMP2-grad     2        1        1
  DFT-cphf2   -15        6        1
  PBF-dens      0        0        1
  plotting      0        0        1
  Rel-grad    -17        0        1
  
  number of gridpoints: 
     atom       Rh1       O2       C3       N4       C5       C6       C7
  grid # 1      299      116       83      102       92       82      102
  grid # 2      235      485      297      337      359      266      388
  grid # 3    35544    23820    15816    16030    15816    15816    15816
  grid # 4    32864    23252    13988    14170    13988    13988    13988
  grid # 5     1144      774      748      756      748      748      748
  grid # 6     2168      416      394      406      394      394      394
   
  number of gridpoints: 
     atom        N8       H9      H10      H11      H12      P13      P14
  grid # 1      122      112      109      116      117      608      608
  grid # 2      493      453      446      450      466      426      427
  grid # 3    16030    17074    17074    17074    17074    24032    24032
  grid # 4    14170    15058    15058    15058    15058    23016    23016
  grid # 5      756      786      786      786      786      722      722
  grid # 6      406      420      420      420      420      370      370
   
  number of gridpoints: 
     atom       C15      C16      H17      H18      C19      C20      C21
  grid # 1       82       82      105      103       76       75       74
  grid # 2      350      349      463      449      255      256      259
  grid # 3    15816    15816    17074    17074    15816    15816    15816
  grid # 4    13988    13988    15058    15058    13988    13988    13988
  grid # 5      748      748      786      786      748      748      748
  grid # 6      394      394      420      420      394      394      394
   
  number of gridpoints: 
     atom       C22      H23      H24      H25      H26      H27      H28
  grid # 1       75      106      105      106      106      110      111
  grid # 2      254      455      454      455      454      460      462
  grid # 3    15816    17074    17074    17074    17074    17074    17074
  grid # 4    13988    15058    15058    15058    15058    15058    15058
  grid # 5      748      786      786      786      786      786      786
  grid # 6      394      420      420      420      420      420      420
   
  number of gridpoints: 
     atom       H29      H30      H31      H32      H33      H34      H35
  grid # 1      105      106      104      105      105      106      105
  grid # 2      449      455      452      453      453      454      448
  grid # 3    17074    17074    17074    17074    17074    17074    17074
  grid # 4    15058    15058    15058    15058    15058    15058    15058
  grid # 5      786      786      786      786      786      786      786
  grid # 6      420      420      420      420      420      420      420
   
  number of gridpoints: 
     atom       H36    total
  grid # 1      105     4825
  grid # 2      445    14512
  grid # 3    17074   639128
  grid # 4    15058   571528
  grid # 5      786    28074
  grid # 6      420    16476
   
  Peak memory usage:   1258 Mb
  
  end of program grid
   
 Time(grid)  user:       23.1  user+sys:       23.1  wallclock:        8.2
  
  start of program rwr
  
  Peak memory usage:   1226 Mb
  
  end of program rwr
   
 Time(rwr)  user:        6.9  user+sys:        6.9  wallclock:        3.4
  
  start of program scf
  
 number of electrons..........        148
 number of alpha electrons....         74
 number of beta electrons.....         74
 number of orbitals, total....        340
 number of doubly-occ'd orbs..         74
 number of open shell orbs....          0
 number of occupied orbitals..         74
 number of virtual orbitals...        266
 number of hamiltonians.......          1
 number of shells.............          1
 SCF type: DFT=Becke_3_Parameter/HF+Slater+Becke88+VWN+LYP (B3LYP)
 Energy computed with NOPS off.
 Convergence Criterion:
    Energy (econv):       1.00E-05
    RMS density (dconv):  5.00E-06
  
       i  u  d  i  g                   
       t  p  i  c  r                                 RMS    maximum
       e  d  i  u  i                       energy  density   DIIS  
       r  t  s  t  d       total energy    change  change    error 
  
etot    1  N  N  1  U   -1366.19852036890           4.7E-03  1.1E-01
etot    2  N  Y  1  U   -1368.81437330378  2.6E+00  4.9E-03  5.5E-02
etot    3  N  Y  1  U   -1369.15040213279  3.4E-01  3.0E-03  9.6E-02
etot    4  N  Y  1  U   -1369.66939563681  5.2E-01  1.8E-03  4.1E-02
etot    5  N  Y  1  U   -1369.84249055618  1.7E-01  7.1E-04  1.6E-02
etot    6  N  Y  1  U   -1369.87980182938  3.7E-02  1.9E-04  5.2E-03
etot    7  N  Y  1  U   -1369.88200539848  2.2E-03  7.7E-05  3.0E-03
etot    8  N  Y  1  U   -1369.88288641616  8.8E-04  2.4E-05  6.1E-04
etot    9  N  Y  1  U   -1369.88292970404  4.3E-05  9.0E-06  1.3E-04
etot   10  N  Y  1  U   -1369.88293401072  4.3E-06  4.0E-06  6.8E-05
etot   11  N  N  1  U   -1369.88293508102  1.1E-06  0.0E+00  0.0E+00
  
  
 Energy components, in hartrees:
   (A)  Nuclear repulsion............    1700.69373403348
   (E)  Total one-electron terms.....   -5283.38838495064
   (I)  Total two-electron terms.....    2212.81171583614
   (J)    Coulomb....................    2354.55124126124
   (K)    Exchange+Correlation.......    -141.73952542510
   (L)  Electronic energy............   -3070.57666911450  (E+I)
   (N)  Total energy.................   -1369.88293508102  (A+L)
   (O)  Gas phase energy.............   -1369.88293508102
  
 SCFE: SCF energy: DFT(b3lyp)     -1369.88293508102 hartrees   iterations:  11
  
 
 HOMO energy:    -0.35761
 LUMO energy:    -0.18440
 
  Orbital energies (hartrees): 
   -77.25784   -77.24024   -19.30024   -14.52997   -14.45259   -10.44445
   -10.39689   -10.37256   -10.34771   -10.34439   -10.34302   -10.31946
   -10.31731   -10.31309   -10.31175    -6.73509    -6.71908    -4.89681
    -4.89615    -4.89496    -4.88099    -4.88015    -4.87821    -3.27635
    -2.08384    -2.07676    -2.06737    -1.20518    -1.09486    -1.01968
    -0.94662    -0.93476    -0.89946    -0.87236    -0.83335    -0.82634
    -0.81950    -0.75433    -0.75279    -0.72861    -0.71320    -0.66216
    -0.65041    -0.62726    -0.61494    -0.59333    -0.58604    -0.57094
    -0.56615    -0.56405    -0.55947    -0.55484    -0.55097    -0.54354
    -0.54168    -0.53836    -0.53281    -0.50967    -0.50521    -0.49759
    -0.48823    -0.48730    -0.47655    -0.46650    -0.46618    -0.45979
    -0.44672    -0.43425    -0.42580    -0.42175    -0.41763    -0.40864
    -0.39913    -0.35761    -0.18440    -0.17126    -0.16905    -0.14242
    -0.11967    -0.10008    -0.09354    -0.07833    -0.07682    -0.07018
 
  Peak memory usage:   1722 Mb
  
  end of program scf
   
 Time(scf)  user:      171.2  user+sys:      171.2  wallclock:       63.9
  
  start of program cutabab2
  
  Peak memory usage:   1559 Mb
  
  end of program cutabab2
   
 Time(cutabab2)  user:        0.7  user+sys:        0.7  wallclock:        0.4
  
  start of program der2a
  
  Peak memory usage:   1546 Mb
  
  end of program der2a
   
 Time(der2a)  user:        9.0  user+sys:        9.0  wallclock:        3.3
  
  start of program der2b
  
  Peak memory usage:   1867 Mb
  
  end of program der2b
   
 Time(der2b)  user:      685.9  user+sys:      685.9  wallclock:      229.7
  
  start of program der2nda
  
 
  Peak memory usage:    974 Mb
  
  end of program der2nda
   
 Time(der2nda)  user:        5.9  user+sys:        5.9  wallclock:        6.1
  
  start of program der2ndb
  
  Peak memory usage:   1593 Mb
  
  end of program der2ndb
   
 Time(der2ndb)  user:     1072.6  user+sys:     1072.6  wallclock:      363.3
  
  start of program rwr
  
  Peak memory usage:   1226 Mb
  
  end of program rwr
   
 Time(rwr)  user:        7.0  user+sys:        7.0  wallclock:        3.3
  
  start of program cphfa
  
       5  vectors produced in CPHF
  
     v    i  j  k  i  g
     e    t  c  c  c  r
     c    e  o  o  u  i
     t    r  r  r  t  d       RMS  
  
     1    1  5  2  6  M     7.5E-03
     1    2  5  2  6  M     6.7E-04
     1    3  0  0  6  M     3.4E-04
     1    4  0  0  6  M     1.5E-04
     1    5  0  0  6  M     5.7E-05
     1    6  0  0  6  M     2.4E-05
  
     v    i  j  k  i  g
     e    t  c  c  c  r
     c    e  o  o  u  i
     t    r  r  r  t  d       RMS  
  
     2    1  5  2  6  M     7.7E-03
     2    2  5  2  6  M     8.1E-04
     2    3  0  0  6  M     3.2E-04
     2    4  0  0  6  M     1.6E-04
     2    5  0  0  6  M     7.0E-05
     2    6  0  0  6  M     3.0E-05
  
     v    i  j  k  i  g
     e    t  c  c  c  r
     c    e  o  o  u  i
     t    r  r  r  t  d       RMS  
  
     3    1  5  2  6  M     7.7E-03
     3    2  5  2  6  M     5.5E-04
     3    3  0  0  6  M     3.7E-04
     3    4  0  0  6  M     1.4E-04
     3    5  0  0  6  M     6.2E-05
     3    6  0  0  6  M     1.9E-05
  
     v    i  j  k  i  g
     e    t  c  c  c  r
     c    e  o  o  u  i
     t    r  r  r  t  d       RMS  
  
     4    1  5  2  6  M     7.6E-03
     4    2  5  2  6  M     4.5E-04
     4    3  0  0  6  M     2.5E-04
     4    4  0  0  6  M     1.2E-04
     4    5  0  0  6  M     5.7E-05
     4    6  0  0  6  M     1.9E-05
  
     v    i  j  k  i  g
     e    t  c  c  c  r
     c    e  o  o  u  i
     t    r  r  r  t  d       RMS  
  
     5    1  5  2  6  M     7.3E-03
     5    2  5  2  6  M     2.5E-04
     5    3  0  0  6  M     1.4E-04
     5    4  0  0  6  M     5.2E-05
     5    5  0  0  6  M     2.3E-05
  
  
  Atomic Polar Tensors (au): Total
  =========================
  
  APT for atom Rh1     
  --------------------------------------
       -0.5722       0.0977      -0.0051
        0.3128      -0.4489       0.1522
        0.0464       0.0798      -0.1624
  --------------------------------------
  
  APT for atom O2      
  --------------------------------------
       -0.8335      -0.0494      -0.2688
       -0.0219      -0.1385      -0.0572
       -0.3610      -0.0164      -0.9929
  --------------------------------------
  
  APT for atom C3      
  --------------------------------------
        1.3457       0.0453       0.2092
        0.0994       0.2069      -0.0030
       -0.0545      -0.0086       0.6508
  --------------------------------------
  
  APT for atom N4      
  --------------------------------------
       -0.6716       0.0474       0.0310
        0.0472      -0.3331      -0.0197
        0.3118       0.0092      -0.3831
  --------------------------------------
  
  APT for atom C5      
  --------------------------------------
       -0.4032      -0.2209      -0.0567
        0.3331       0.3063       0.0389
       -0.0458      -0.0440       0.4841
  --------------------------------------
  
  APT for atom C6      
  --------------------------------------
        0.7387       0.2493       0.2102
       -0.1638       0.0822      -0.0044
        0.2022      -0.0284       0.0678
  --------------------------------------
  
  APT for atom C7      
  --------------------------------------
        0.5051      -0.0376      -0.0595
       -0.2801       0.0519       0.0377
       -0.3355       0.0525      -0.0490
  --------------------------------------
  
  APT for atom N8      
  --------------------------------------
       -0.4668      -0.0150      -0.0070
        0.1421      -0.2485       0.0153
        0.1431       0.0149      -0.2448
  --------------------------------------
  
  APT for atom H9      
  --------------------------------------
       -0.0180      -0.0946      -0.0175
       -0.0268       0.0662      -0.0175
       -0.0013      -0.0190       0.0417
  --------------------------------------
  
  APT for atom H10     
  --------------------------------------
        0.0445      -0.0337      -0.0143
       -0.0318       0.0664      -0.0139
        0.0085       0.0012       0.0070
  --------------------------------------
  
  APT for atom H11     
  --------------------------------------
        0.2834       0.0060       0.0614
       -0.0453       0.2905       0.0248
        0.0123       0.0232       0.1395
  --------------------------------------
  
  APT for atom H12     
  --------------------------------------
        0.0574      -0.0050      -0.1089
       -0.0120       0.0917       0.0183
       -0.0418      -0.0023      -0.0475
  --------------------------------------
  
  APT for atom P13     
  --------------------------------------
        0.9593      -0.0421       0.0966
        0.0005       1.1614      -0.2349
        0.2290      -0.1288       1.2974
  --------------------------------------
  
  APT for atom P14     
  --------------------------------------
        1.0744       0.0961       0.0773
        0.1815       1.0573      -0.1019
        0.0596      -0.1219       1.0524
  --------------------------------------
  
  APT for atom C15     
  --------------------------------------
       -0.2860       0.0670      -0.0047
        0.0482      -0.1397       0.0620
       -0.0310       0.0704      -0.3291
  --------------------------------------
  
  APT for atom C16     
  --------------------------------------
       -0.2834       0.0054       0.0463
       -0.0425      -0.2854       0.0440
        0.0515       0.0595      -0.1260
  --------------------------------------
  
  APT for atom H17     
  --------------------------------------
       -0.3540      -0.0170      -0.0632
        0.0021       0.1233       0.0131
        0.0309      -0.0128       0.1066
  --------------------------------------
  
  APT for atom H18     
  --------------------------------------
       -0.0640       0.0332      -0.0163
       -0.2354      -0.2653      -0.0461
        0.0285       0.0069       0.1338
  --------------------------------------
  
  APT for atom C19     
  --------------------------------------
       -0.2144      -0.0180       0.0499
       -0.0119      -0.2354       0.0201
       -0.1127       0.0309      -0.3061
  --------------------------------------
  
  APT for atom C20     
  --------------------------------------
       -0.2482       0.0442      -0.1034
        0.0308      -0.2434       0.0255
       -0.0244       0.0398      -0.4086
  --------------------------------------
  
  APT for atom C21     
  --------------------------------------
       -0.2009       0.0526      -0.0244
       -0.1323      -0.3113       0.0535
       -0.0224       0.0176      -0.2240
  --------------------------------------
  
  APT for atom C22     
  --------------------------------------
       -0.2750      -0.1280       0.0364
       -0.0890      -0.3710       0.0155
        0.0062       0.0088      -0.2329
  --------------------------------------
  
  APT for atom H23     
  --------------------------------------
        0.0737      -0.0026      -0.0267
       -0.0325      -0.0143      -0.0127
       -0.0137       0.0019       0.0768
  --------------------------------------
  
  APT for atom H24     
  --------------------------------------
        0.0762      -0.0188       0.0515
       -0.0172       0.0949       0.0002
       -0.0209      -0.0203      -0.0428
  --------------------------------------
  
  APT for atom H25     
  --------------------------------------
        0.0285      -0.0826       0.0392
       -0.0318      -0.0427      -0.0055
        0.0461       0.0260       0.0673
  --------------------------------------
  
  APT for atom H26     
  --------------------------------------
        0.0597       0.0243      -0.0599
        0.0216       0.0677      -0.0035
       -0.0220      -0.0129      -0.0360
  --------------------------------------
  
  APT for atom H27     
  --------------------------------------
        0.1471      -0.0328      -0.0362
       -0.0485       0.0153      -0.0401
       -0.0305       0.0012       0.0016
  --------------------------------------
  
  APT for atom H28     
  --------------------------------------
        0.1355      -0.0396      -0.0346
       -0.0324       0.0041      -0.0063
       -0.0546      -0.0403       0.0047
  --------------------------------------
  
  APT for atom H29     
  --------------------------------------
        0.0106      -0.0094       0.0399
        0.0143       0.1197       0.0078
        0.0129       0.0128       0.0617
  --------------------------------------
  
  APT for atom H30     
  --------------------------------------
        0.0964       0.0592      -0.0201
       -0.0338      -0.0748      -0.0130
       -0.0072       0.0133       0.0933
  --------------------------------------
  
  APT for atom H31     
  --------------------------------------
        0.0768      -0.0211       0.0056
       -0.0057       0.0860       0.0020
       -0.0299      -0.0178      -0.0191
  --------------------------------------
  
  APT for atom H32     
  --------------------------------------
        0.0190       0.0534      -0.0229
        0.0433       0.0632       0.0248
       -0.0116       0.0065       0.0848
  --------------------------------------
  
  APT for atom H33     
  --------------------------------------
        0.0279      -0.0180       0.0510
       -0.0088       0.0880       0.0044
        0.0383       0.0200       0.0690
  --------------------------------------
  
  APT for atom H34     
  --------------------------------------
        0.0494       0.0300      -0.0658
        0.0416       0.0746       0.0167
       -0.0299      -0.0149      -0.0483
  --------------------------------------
  
  APT for atom H35     
  --------------------------------------
        0.0585      -0.0643       0.0311
       -0.0255      -0.0282      -0.0180
        0.0144      -0.0138       0.0831
  --------------------------------------
  
  APT for atom H36     
  --------------------------------------
        0.0230       0.0392      -0.0207
        0.0100       0.0626       0.0205
        0.0087       0.0058       0.1291
  --------------------------------------
  
  Peak memory usage:   1659 Mb
  
  end of program cphfa
   
 Time(cphfa)  user:     2438.4  user+sys:     2438.4  wallclock:     1036.0
  
  start of program freq
  
   
  Number of frequencies: 102
  harmonic frequencies in cm**-1, reduced masses in amu,
  force constants in mDyne/A, and
  normal modes in cartesian coordinates:         102
  IR intensities in km/mol
  
  vibration #            1        2        3        4        5        6
                  -------- -------- -------- -------- -------- --------
  frequencies      -705.89    42.10    64.83    82.41    89.32   116.11
  intensities        23.11     0.05     3.67     5.97     3.90     2.75
  reduc. mass         0.76     0.94     2.55     2.13     1.50     1.66
  force const         0.22     0.00     0.01     0.01     0.01     0.01
    Rh1      X    -0.00331  0.00014  0.00597  0.01252 -0.01004  0.02278
    Rh1      Y     0.01499  0.00536  0.00268 -0.01962 -0.01298 -0.00548
    Rh1      Z    -0.00191  0.00304 -0.00459 -0.00151  0.02111 -0.00997
    O2       X     0.00157  0.01601 -0.01633  0.02392  0.03400 -0.00436
    O2       Y     0.00077  0.00365  0.04691 -0.00139  0.01938 -0.09453
    O2       Z     0.00193  0.00315 -0.00643 -0.00479  0.02030 -0.00300
    C3       X    -0.00366  0.02034 -0.02418  0.02105  0.04294 -0.01163
    C3       Y    -0.00008 -0.01221  0.06090  0.04557  0.07085 -0.03792
    C3       Z     0.00043 -0.00617  0.00893  0.00140  0.00034  0.01188
    N4       X     0.00277  0.01556 -0.01394  0.02211  0.02919 -0.00706
    N4       Y    -0.00508 -0.02498  0.03715  0.07077  0.08541  0.05795
    N4       Z     0.00412 -0.01535  0.02126  0.00740 -0.02068  0.03024
    C5       X     0.03272  0.00657  0.00539  0.02614 -0.00541 -0.00047
    C5       Y     0.01885 -0.01903 -0.01124  0.03082  0.03954  0.05880
    C5       Z     0.00896 -0.01399  0.01213  0.00075 -0.02623  0.03040
    C6       X     0.06495  0.01603  0.03475  0.00096 -0.03335 -0.01651
    C6       Y    -0.04944 -0.01146 -0.01547  0.00641  0.01964  0.04555
    C6       Z     0.00872 -0.00516 -0.03319 -0.03056 -0.04635  0.02249
    C7       X     0.00304 -0.00865 -0.01769  0.06680 -0.04747 -0.04783
    C7       Y    -0.01137 -0.02514 -0.07179  0.03730  0.00259  0.02288
    C7       Z    -0.00083 -0.02414  0.04908  0.03682 -0.03179  0.01824
    N8       X     0.00233 -0.02146 -0.03777  0.11699 -0.09484 -0.10723
    N8       Y    -0.00324 -0.03019 -0.13477  0.04527 -0.03386 -0.02045
    N8       Z    -0.00272 -0.03229  0.09369  0.08098 -0.04350  0.00154
    H9       X    -0.21254  0.02932  0.05556 -0.01271 -0.01814 -0.04028
    H9       Y    -0.07810 -0.01335  0.01459  0.02421  0.03840  0.04443
    H9       Z    -0.02571 -0.00066 -0.06031 -0.05170 -0.06288  0.01884
    H10      X    -0.10096  0.01383  0.04288 -0.01178 -0.06887 -0.02430
    H10      Y    -0.05916 -0.00991 -0.05729 -0.01609 -0.00209  0.04674
    H10      Z    -0.03524 -0.00514 -0.04608 -0.04219 -0.06389  0.02069
    H11      X     0.00108  0.01931 -0.02000  0.02015  0.03759 -0.01276
    H11      Y    -0.00358 -0.03641  0.04457  0.09521  0.12389  0.09124
    H11      Z     0.00601 -0.02265  0.03272  0.01161 -0.03553  0.04168
    H12      X     0.00068  0.02827 -0.03869  0.01687  0.06342 -0.02095
    H12      Y    -0.00369 -0.01650  0.09434  0.06926  0.10840 -0.06210
    H12      Z     0.00014 -0.00735  0.01288  0.00346  0.00071  0.01136
    P13      X     0.00167 -0.00091 -0.02268 -0.02009  0.02245  0.00848
    P13      Y     0.00095  0.00602  0.01291 -0.00246  0.00187 -0.00222
    P13      Z    -0.00041  0.00307 -0.00118  0.00240  0.01628 -0.00931
    P14      X     0.00711 -0.00648  0.02746 -0.02438 -0.00426  0.02834
    P14      Y    -0.00930  0.00708 -0.00367 -0.01966 -0.02317 -0.00187
    P14      Z     0.00188  0.00895 -0.01387 -0.01355 -0.00592 -0.00738
    C15      X     0.00028  0.09065 -0.00442 -0.02482  0.01538  0.00145
    C15      Y    -0.00003 -0.01483  0.01115  0.00337  0.01199 -0.00372
    C15      Z     0.00110 -0.00960 -0.00945 -0.01234 -0.00760 -0.00078
    C16      X    -0.00029  0.08755  0.01299 -0.02302  0.01780  0.00093
    C16      Y    -0.00205 -0.01335  0.00635 -0.00338  0.00107 -0.00303
    C16      Z     0.00006 -0.00827 -0.01373 -0.01920 -0.01876  0.00016
    H17      X     0.00047  0.00088  0.00757  0.01324 -0.01261  0.02251
    H17      Y    -0.13547  0.01881  0.00747 -0.01989 -0.03654 -0.03841
    H17      Z     0.03079  0.01200 -0.00151  0.01847  0.02535 -0.02109
    H18      X    -0.86408  0.01843  0.04594 -0.00964 -0.04062 -0.02803
    H18      Y    -0.12980  0.00617  0.00550 -0.02420 -0.01383 -0.00324
    H18      Z    -0.09543  0.00051 -0.01384 -0.00578  0.01847  0.01612
    C19      X     0.00021 -0.06290 -0.05005 -0.03551  0.06120 -0.01599
    C19      Y    -0.00037 -0.06401 -0.00026  0.00425  0.03976 -0.01428
    C19      Z     0.00112  0.01412  0.02774  0.03784  0.00269  0.01566
    C20      X     0.00027 -0.02527 -0.04098 -0.03356  0.04781 -0.01516
    C20      Y     0.00043  0.09873  0.04736  0.01518 -0.01652  0.00668
    C20      Z    -0.00028 -0.00036 -0.01651 -0.01070  0.04539 -0.04024
    C21      X     0.00010 -0.06463  0.04899 -0.06135 -0.02865  0.00863
    C21      Y    -0.00319  0.01857 -0.03941  0.01280 -0.05153  0.10997
    C21      Z    -0.00068 -0.06437 -0.00447 -0.04414 -0.05441  0.02803
    C22      X    -0.00123 -0.03220  0.04495 -0.06509 -0.01728 -0.02530
    C22      Y    -0.01338  0.01251  0.00425 -0.06475 -0.03882 -0.06451
    C22      Z    -0.00051  0.10265 -0.04867 -0.00179 -0.00447 -0.00095
    H23      X     0.00176 -0.12425 -0.06861 -0.03868  0.08734 -0.02489
    H23      Y    -0.00105 -0.05172  0.00176  0.00263  0.03210 -0.01180
    H23      Z    -0.00003  0.02311  0.04099  0.05238  0.01458  0.01248
    H24      X    -0.00080 -0.01894 -0.04369 -0.03495  0.05502 -0.03692
    H24      Y    -0.00212  0.10179  0.04466  0.00732 -0.00056  0.00714
    H24      Z     0.00054 -0.00231 -0.01530 -0.00857  0.04020 -0.03605
    H25      X    -0.00695 -0.05923  0.05751 -0.09103 -0.03124 -0.03340
    H25      Y    -0.00247  0.01750 -0.03831  0.01808 -0.04659  0.10790
    H25      Z     0.00404 -0.06125 -0.02724 -0.05595 -0.10069  0.10868
    H26      X    -0.00000 -0.08063  0.05458 -0.09061 -0.04114 -0.02953
    H26      Y    -0.00241  0.03930 -0.01341 -0.09302 -0.06778 -0.08328
    H26      Z    -0.00136  0.11013 -0.04888  0.00645  0.00352  0.00174
    H27      X    -0.00133  0.13715 -0.01118 -0.03316  0.02185 -0.01254
    H27      Y     0.00299 -0.02603  0.01445  0.01349  0.02388 -0.00251
    H27      Z     0.00057 -0.01735 -0.00867 -0.01273 -0.01156  0.00195
    H28      X    -0.00449  0.13242  0.02131 -0.02979  0.02488 -0.01056
    H28      Y     0.00053 -0.02278  0.00504 -0.00031  0.00245 -0.00075
    H28      Z    -0.00699 -0.01546 -0.01721 -0.02561 -0.03271  0.00290
    H29      X    -0.00313 -0.00562  0.03720 -0.04289 -0.00398 -0.00878
    H29      Y    -0.00866 -0.00767  0.02221 -0.07324 -0.02678 -0.10160
    H29      Z    -0.00088  0.13464 -0.05219  0.02805  0.02140  0.00757
    H30      X     0.01621 -0.02861  0.05112 -0.08454 -0.01731 -0.07401
    H30      Y    -0.01953  0.00871  0.00574 -0.05407 -0.03241 -0.04997
    H30      Z     0.00981  0.11786 -0.06518 -0.03181 -0.03861 -0.01104
    H31      X     0.00005 -0.12336  0.06392 -0.07652 -0.05050  0.01953
    H31      Y    -0.00101  0.02941 -0.06314 -0.00186 -0.09591  0.18364
    H31      Z    -0.00098 -0.05503 -0.00214 -0.03786 -0.04020  0.00961
    H32      X     0.00109 -0.04765  0.03882 -0.03970 -0.01982  0.02927
    H32      Y    -0.00114  0.01583 -0.04118  0.04149 -0.03605  0.12428
    H32      Z    -0.00086 -0.12134  0.02352 -0.05916 -0.05364 -0.00950
    H33      X    -0.00022 -0.04904 -0.04031 -0.02700  0.04717 -0.00435
    H33      Y     0.00125 -0.12425 -0.02586 -0.00888  0.06261 -0.02569
    H33      Z     0.00158  0.01401  0.03544  0.04887 -0.01483  0.03355
    H34      X    -0.00201 -0.05426 -0.05902 -0.05168  0.07430 -0.03456
    H34      Y    -0.00525 -0.05938  0.01396  0.02209  0.05058 -0.01359
    H34      Z     0.00234  0.01275  0.02589  0.03587 -0.00005  0.01681
    H35      X    -0.00036 -0.08205 -0.06356 -0.04867  0.07125 -0.01941
    H35      Y     0.00036  0.11155  0.05278  0.01911 -0.02290  0.00789
    H35      Z    -0.00168  0.01209 -0.01691 -0.01684  0.05735 -0.04289
    H36      X     0.00047  0.00760 -0.02582 -0.02234  0.02936 -0.00539
    H36      Y    -0.00027  0.13720  0.06341  0.02932 -0.03980  0.01037
    H36      Z    -0.00266 -0.01464 -0.02504 -0.01273  0.04929 -0.05754
  
  vibration #            7        8        9       10       11       12
                  -------- -------- -------- -------- -------- --------
  frequencies       122.15   129.01   152.94   166.73   173.47   186.85
  intensities         1.52     2.89     0.24     0.99     0.43     0.20
  reduc. mass         1.01     1.28     1.26     1.05     0.48     0.36
  force const         0.01     0.01     0.02     0.02     0.01     0.01
    Rh1      X     0.01002  0.02278 -0.00947 -0.01078 -0.00377  0.00253
    Rh1      Y    -0.00497 -0.00314 -0.02463  0.00415  0.01113  0.01406
    Rh1      Z     0.00342 -0.00310 -0.00157  0.00745 -0.00240  0.00533
    O2       X    -0.01705 -0.03607 -0.03786  0.01880 -0.01698 -0.01512
    O2       Y     0.08548  0.08837  0.01714  0.06358 -0.00541 -0.00746
    O2       Z     0.00043 -0.00727 -0.01424  0.02117 -0.00823 -0.00836
    C3       X    -0.02162 -0.04714 -0.03113  0.02154 -0.01170 -0.01120
    C3       Y     0.05328  0.04318  0.02992  0.01670 -0.02371 -0.01631
    C3       Z     0.01084  0.01647 -0.02693  0.01392 -0.02049 -0.01496
    N4       X    -0.01154 -0.02819 -0.03799  0.01718 -0.01882 -0.01478
    N4       Y    -0.01944 -0.03711 -0.01356 -0.03514 -0.01903 -0.00547
    N4       Z     0.01657  0.03423 -0.04228  0.00084 -0.03090 -0.01798
    C5       X     0.00116  0.00099 -0.04584  0.00170 -0.02506 -0.01319
    C5       Y    -0.01300 -0.01437 -0.04440 -0.01136 -0.00636 -0.00232
    C5       Z     0.01791  0.03723 -0.04980  0.00593 -0.02956 -0.01833
    C6       X     0.00850  0.01934 -0.04011  0.00418 -0.01492 -0.00421
    C6       Y    -0.00826 -0.00406 -0.03782 -0.00071  0.00662  0.00605
    C6       Z     0.02104  0.04360 -0.05702  0.03114 -0.01759 -0.01614
    C7       X    -0.00467 -0.01096 -0.00190  0.00130 -0.00634 -0.00258
    C7       Y     0.00358  0.00431 -0.02383 -0.00321 -0.00042  0.00088
    C7       Z    -0.00472  0.00605 -0.02755 -0.00325 -0.01810 -0.01086
    N8       X    -0.01997 -0.03720  0.04553  0.01066  0.02452  0.01392
    N8       Y     0.04662  0.05168  0.00283 -0.00251 -0.00784 -0.00230
    N8       Z    -0.06552 -0.07048 -0.00585  0.00592  0.02210  0.00953
    H9       X    -0.00383 -0.00156 -0.01387  0.01235  0.00259  0.01157
    H9       Y    -0.01397 -0.01435 -0.02780 -0.01535  0.00143  0.00749
    H9       Z     0.02479  0.05050 -0.06243  0.04810 -0.00838 -0.01409
    H10      X     0.02274  0.04557 -0.04446  0.00572 -0.00865  0.00251
    H10      Y    -0.00121  0.00735 -0.04824  0.01796  0.01415  0.00516
    H10      Z     0.02767  0.05484 -0.06177  0.03838 -0.01333 -0.01493
    H11      X    -0.01610 -0.03818 -0.03536  0.02432 -0.01438 -0.01395
    H11      Y    -0.02834 -0.05212  0.01262 -0.06858 -0.03531 -0.01616
    H11      Z     0.02488  0.05259 -0.04615 -0.01363 -0.03966 -0.01971
    H12      X    -0.03462 -0.07289 -0.02042  0.02870 -0.00005 -0.00652
    H12      Y     0.08187  0.06545  0.07536  0.01550 -0.04434 -0.03256
    H12      Z     0.01416  0.02078 -0.02508  0.01312 -0.02323 -0.01680
    P13      X     0.03663 -0.01045  0.01664 -0.05096 -0.01372  0.01445
    P13      Y    -0.01245 -0.00653  0.00889  0.00034  0.01997  0.02338
    P13      Z    -0.00109 -0.00110  0.01169  0.00973  0.00114 -0.00565
    P14      X    -0.02725  0.03001  0.02617  0.04732  0.03891 -0.00037
    P14      Y    -0.00953 -0.01304 -0.00241 -0.00700 -0.00775 -0.01391
    P14      Z     0.00516 -0.00437  0.00236 -0.02827  0.02555  0.03564
    C15      X     0.05286 -0.04022  0.01663 -0.03213 -0.00119  0.01841
    C15      Y    -0.01340  0.00050  0.01021  0.00039  0.01256  0.01580
    C15      Z    -0.00914  0.00514 -0.00008 -0.00740  0.02201  0.02470
    C16      X    -0.05050  0.03426  0.02289  0.03582  0.03854  0.00610
    C16      Y     0.00631 -0.01256  0.00429 -0.01522  0.00974  0.01785
    C16      Z     0.00632 -0.00571 -0.00226 -0.02220  0.02106  0.02657
    H17      X     0.01115  0.02357 -0.01839 -0.01057 -0.00835 -0.00035
    H17      Y    -0.00002 -0.00863 -0.06532  0.00780 -0.00684  0.00540
    H17      Z    -0.01178 -0.01468 -0.00884  0.02321 -0.00402  0.00319
    H18      X     0.01668  0.03165 -0.05230  0.02701  0.01526  0.02332
    H18      Y    -0.00825 -0.00456 -0.02245  0.00986  0.01301  0.01251
    H18      Z    -0.01548 -0.01325 -0.00799  0.02849 -0.00692 -0.00769
    C19      X    -0.01440 -0.00401  0.03184 -0.01838  0.00684  0.01538
    C19      Y    -0.07246  0.04806  0.07296 -0.02755  0.02079  0.00865
    C19      Z     0.00407  0.06348  0.07741 -0.08844 -0.03629 -0.03205
    C20      X     0.02048 -0.03924  0.01401  0.00451 -0.00532 -0.01862
    C20      Y     0.07442 -0.06308  0.04613 -0.02146  0.01090  0.02543
    C20      Z     0.00631 -0.06153  0.02061  0.08643  0.00906 -0.05890
    C21      X     0.00621 -0.01556  0.02925  0.01397  0.02520  0.01047
    C21      Y     0.00210 -0.01515  0.08515  0.08095 -0.00209 -0.07328
    C21      Z     0.05848 -0.06620  0.05287 -0.02746  0.01094  0.02424
    C22      X    -0.03889  0.00353  0.00762  0.00276 -0.02444 -0.03075
    C22      Y    -0.06455 -0.02713 -0.01455 -0.06524 -0.08992 -0.07252
    C22      Z    -0.09162  0.04568  0.02828 -0.03111  0.03346  0.00219
    H23      X    -0.08476  0.04993  0.05127 -0.01714  0.04113  0.13606
    H23      Y    -0.06063  0.03612  0.05414 -0.01679  0.02234  0.01807
    H23      Z     0.02760  0.06365  0.17053 -0.15990 -0.09349 -0.25848
    H24      X     0.03524 -0.09870  0.01546  0.06070  0.00182 -0.06377
    H24      Y     0.07842 -0.04799  0.07704  0.00289  0.00998  0.01776
    H24      Z     0.00253 -0.05337  0.01316  0.06981  0.00788 -0.04830
    H25      X    -0.04646 -0.02609  0.05537  0.04855 -0.22953  0.21140
    H25      Y     0.01344 -0.01037  0.06603  0.06063  0.06526 -0.11815
    H25      Z     0.01862 -0.10058  0.21060  0.13008 -0.31059  0.19405
    H26      X     0.02114 -0.03079  0.00803 -0.02058 -0.02692 -0.15941
    H26      Y    -0.11228 -0.02194  0.01113 -0.12569 -0.11270 -0.26932
    H26      Z    -0.09969  0.05244  0.02560 -0.02035  0.03607  0.04945
    H27      X     0.09314 -0.08098  0.01552 -0.06058 -0.01579  0.02428
    H27      Y    -0.01879  0.00722  0.00925  0.01457  0.00322  0.00494
    H27      Z    -0.01676  0.01262  0.00050 -0.00425  0.02728  0.02564
    H28      X    -0.09477  0.05352  0.02872  0.07271  0.06017  0.00261
    H28      Y     0.01598 -0.01727  0.00509 -0.02364  0.00532  0.02079
    H28      Z     0.01152 -0.00634 -0.01155 -0.02479  0.01595  0.01661
    H29      X    -0.06053  0.02522  0.01324  0.02718 -0.00073  0.03661
    H29      Y    -0.07190 -0.04188 -0.04753 -0.07443 -0.15344  0.02242
    H29      Z    -0.12858  0.07259  0.02231  0.00218  0.04167  0.14963
    H30      X    -0.08282 -0.00301 -0.01268 -0.03428 -0.09992 -0.01370
    H30      Y    -0.04824 -0.02510 -0.01475 -0.04494 -0.06911 -0.03604
    H30      Z    -0.11814  0.04420  0.05747 -0.08853  0.02660 -0.21726
    H31      X     0.08039 -0.05853  0.01638 -0.05598  0.20528 -0.11191
    H31      Y    -0.05666 -0.04642  0.24880  0.25407 -0.38870  0.14287
    H31      Z     0.05696 -0.05085  0.01957 -0.05175  0.06103  0.00060
    H32      X     0.01069  0.00407  0.02015  0.01769  0.11006 -0.06198
    H32      Y     0.05529  0.00379  0.02321  0.01227  0.29662 -0.28621
    H32      Z     0.14041 -0.09246 -0.03023 -0.16314  0.29006 -0.13629
    H33      X    -0.00616  0.01026  0.02775 -0.03912  0.00167  0.04913
    H33      Y    -0.14421  0.08577  0.05164  0.01249  0.07522  0.18784
    H33      Z    -0.01234  0.10892  0.05910 -0.11090 -0.02207  0.11541
    H34      X     0.01008 -0.06420  0.03103  0.02125 -0.00186 -0.12158
    H34      Y    -0.05734  0.06349  0.16748 -0.10704 -0.03162 -0.18091
    H34      Z    -0.00028  0.06502  0.06134 -0.07764 -0.02672  0.00979
    H35      X    -0.04159  0.01639  0.00209  0.03104 -0.00295 -0.02521
    H35      Y     0.08846 -0.07626  0.04723 -0.02972  0.01049  0.02813
    H35      Z     0.02221 -0.06545  0.05119  0.12049  0.00820 -0.07751
    H36      X     0.05364 -0.05259  0.02119 -0.03171 -0.00910  0.00152
    H36      Y     0.11766 -0.10540  0.04486 -0.04996  0.00949  0.03414
    H36      Z    -0.00094 -0.10056  0.00052  0.12549  0.01533 -0.09336
  
  vibration #           13       14       15       16       17       18
                  -------- -------- -------- -------- -------- --------
  frequencies       193.28   194.45   205.70   213.90   220.12   228.16
  intensities         1.08     3.25     0.88     2.20     0.29     0.59
  reduc. mass         0.71     1.88     1.25     1.38     0.38     0.31
  force const         0.02     0.04     0.03     0.04     0.01     0.01
    Rh1      X     0.00361  0.01112  0.00001 -0.01672  0.00500  0.00643
    Rh1      Y    -0.02632 -0.01267  0.00321 -0.02019  0.01835  0.00136
    Rh1      Z    -0.00078 -0.02915 -0.03040 -0.00381 -0.00243 -0.01540
    O2       X     0.00185 -0.00190  0.01615  0.05227 -0.00926 -0.00254
    O2       Y    -0.00957 -0.01414  0.04022  0.07169  0.00191  0.01986
    O2       Z    -0.00000 -0.02140 -0.02292  0.02620 -0.01086 -0.01687
    C3       X    -0.00558 -0.01621  0.01466  0.05741 -0.00717 -0.00354
    C3       Y     0.03348  0.00591 -0.02668  0.00643 -0.01835 -0.01935
    C3       Z     0.01581  0.00540 -0.02079  0.01753 -0.01574 -0.01623
    N4       X     0.00382  0.00217  0.01575  0.04704 -0.00939 -0.00254
    N4       Y     0.02307  0.02143 -0.02678 -0.03928 -0.00408 -0.01895
    N4       Z     0.02790  0.03256 -0.01735  0.00002 -0.01757 -0.01442
    C5       X     0.01469  0.03421  0.01638  0.00518 -0.00566  0.00189
    C5       Y    -0.01161  0.00901  0.04620  0.02458  0.01608  0.02143
    C5       Z     0.02196  0.03137 -0.00296  0.01485 -0.01459 -0.00692
    C6       X     0.01136  0.04309 -0.01388 -0.05016  0.00116 -0.00878
    C6       Y    -0.02469 -0.00393  0.04572  0.02044  0.02499  0.02257
    C6       Z    -0.00279  0.00128  0.04595  0.07731 -0.00207  0.01149
    C7       X     0.00908  0.01200 -0.00391 -0.01183 -0.00503 -0.00607
    C7       Y    -0.01374 -0.00354  0.03913  0.03196  0.01072  0.01911
    C7       Z     0.01772  0.02096 -0.01332 -0.00542 -0.00966 -0.01014
    N8       X    -0.00857 -0.02598 -0.01682 -0.01083  0.00306 -0.01663
    N8       Y     0.01661  0.02152 -0.03087 -0.02901 -0.00865 -0.01358
    N8       Z    -0.03238 -0.04496  0.04650  0.05968  0.01963  0.01270
    H9       X     0.00520  0.01877 -0.06783 -0.09413  0.00450 -0.03390
    H9       Y    -0.00941  0.00850 -0.00036 -0.03046  0.01715  0.00374
    H9       Z    -0.02016 -0.01633  0.08329  0.12169  0.00712  0.02611
    H10      X     0.00742  0.05890 -0.00584 -0.05858  0.00631 -0.00396
    H10      Y    -0.04547 -0.02375  0.10741  0.09024  0.03559  0.04674
    H10      Z    -0.01098 -0.00133  0.07098  0.10015  0.00293  0.02134
    H11      X    -0.00309 -0.01013  0.01903  0.06226 -0.00843 -0.00203
    H11      Y     0.06292  0.03337 -0.09113 -0.09583 -0.02365 -0.05118
    H11      Z     0.04199  0.05568 -0.02563 -0.03042 -0.01981 -0.01641
    H12      X    -0.02018 -0.03949  0.01291  0.06595 -0.00269 -0.00378
    H12      Y     0.07962  0.01107 -0.08558 -0.01447 -0.04741 -0.05389
    H12      Z     0.02061  0.00853 -0.02458  0.01518 -0.01826 -0.01855
    P13      X    -0.01133 -0.03447 -0.00170  0.00783  0.00123  0.00006
    P13      Y     0.00856  0.01890 -0.02274  0.00320  0.00323 -0.02160
    P13      Z    -0.00390 -0.00667  0.00238 -0.02841  0.00948  0.01585
    P14      X    -0.01122 -0.00157 -0.01223 -0.00633  0.00339  0.00137
    P14      Y    -0.00086 -0.01772 -0.00458 -0.01230 -0.01585 -0.00122
    P14      Z    -0.00935  0.02207  0.00258 -0.00445  0.00975 -0.00261
    C15      X    -0.00735 -0.05066  0.00287  0.01058  0.00293 -0.01888
    C15      Y     0.00611  0.01302 -0.02366 -0.00403  0.00095 -0.01468
    C15      Z    -0.00848  0.01682 -0.00735 -0.01621  0.01388  0.00651
    C16      X    -0.01105 -0.02196 -0.01175  0.00121  0.00468 -0.01810
    C16      Y     0.00084  0.00629 -0.01549 -0.00392 -0.00553 -0.01362
    C16      Z    -0.01187  0.01580  0.00214 -0.01310  0.00757  0.00674
    H17      X     0.00664  0.01693  0.00333 -0.01489  0.00306  0.00680
    H17      Y    -0.02558  0.00299 -0.00322 -0.03771  0.01778 -0.00880
    H17      Z     0.01037 -0.02645 -0.02477 -0.01702 -0.00024 -0.00733
    H18      X    -0.01078  0.04641 -0.00415 -0.03892  0.02697 -0.00825
    H18      Y    -0.02554 -0.01341  0.00213 -0.02003  0.01784  0.00058
    H18      Z     0.00512 -0.03708 -0.04622  0.01621 -0.00623 -0.02750
    C19      X     0.00890  0.01042 -0.01457  0.04317 -0.00393  0.00031
    C19      Y     0.00839  0.04290  0.00751  0.04602 -0.00077  0.00480
    C19      Z    -0.04414 -0.05911  0.07475 -0.03805  0.01479  0.06149
    C20      X    -0.00907  0.00402  0.02935 -0.03561  0.00585  0.02315
    C20      Y     0.05483  0.06520  0.01514  0.03627 -0.00545  0.01200
    C20      Z     0.01546  0.06914  0.06981 -0.08961  0.01448  0.06660
    C21      X    -0.00186  0.01996  0.00586  0.01522 -0.00381 -0.01342
    C21      Y     0.02215 -0.05906 -0.02409  0.00256 -0.04851  0.00626
    C21      Z     0.01470  0.03510  0.01985  0.03490 -0.01397 -0.01923
    C22      X     0.01401 -0.01419 -0.01172 -0.00781 -0.02058  0.01335
    C22      Y     0.04794 -0.01563 -0.00062  0.00073 -0.05617  0.01252
    C22      Z     0.02284  0.07686  0.01406  0.03160 -0.00865 -0.00701
    H23      X     0.23045 -0.06317  0.04411  0.06644 -0.00340  0.11734
    H23      Y     0.01960  0.03296 -0.00018  0.03272 -0.00010  0.00068
    H23      Z    -0.42306  0.10589  0.04195  0.01536  0.00989 -0.07602
    H24      X    -0.02138  0.09426 -0.00539 -0.06257  0.01730  0.21601
    H24      Y     0.16916  0.03625  0.34045 -0.06251 -0.01915 -0.37893
    H24      Z    -0.00862  0.05824  0.00134 -0.06167  0.01542  0.11928
    H25      X    -0.05573  0.09615  0.02168  0.00804  0.11075 -0.03202
    H25      Y     0.03256 -0.07367 -0.02581  0.00126 -0.07273  0.01088
    H25      Z    -0.01406  0.07406  0.01438  0.05837  0.06911 -0.04017
    H26      X     0.09987 -0.07406 -0.07893  0.01271  0.32108 -0.02098
    H26      Y     0.20237 -0.00308 -0.05589  0.07819  0.27848 -0.02750
    H26      Z    -0.01083  0.08873  0.03404  0.01958 -0.11518  0.00434
    H27      X    -0.00679 -0.09050  0.01231  0.02164  0.00263 -0.03604
    H27      Y     0.00818  0.00740 -0.03065 -0.01370  0.00435 -0.00569
    H27      Z    -0.00910  0.02675 -0.00765 -0.01661  0.01305  0.00835
    H28      X    -0.01227 -0.03636 -0.01469  0.00252  0.00518 -0.03579
    H28      Y     0.00302  0.01188 -0.01634 -0.00231 -0.00352 -0.01151
    H28      Z    -0.01932  0.00637  0.00853 -0.02153 -0.00139  0.01678
    H29      X    -0.03229  0.01676  0.01743 -0.01520 -0.15274  0.02227
    H29      Y    -0.02351 -0.02415  0.04736 -0.04796 -0.37355  0.06265
    H29      Z    -0.08093  0.12173  0.08083 -0.00162 -0.35614  0.02904
    H30      X     0.00592 -0.00600  0.02035 -0.02174 -0.23229  0.04951
    H30      Y     0.01854 -0.01781  0.00465 -0.01114 -0.08309  0.01327
    H30      Z     0.19178  0.07727 -0.05883  0.11440  0.42919 -0.06075
    H31      X     0.04822  0.00561  0.02303  0.05619 -0.09370 -0.02628
    H31      Y    -0.02162 -0.00841 -0.03060  0.01750  0.06356 -0.01511
    H31      Z     0.01461  0.02680  0.01795  0.02394 -0.02112 -0.01219
    H32      X     0.01197 -0.01837 -0.00891  0.00609 -0.03895  0.00067
    H32      Y     0.07430 -0.13479 -0.03710  0.00195 -0.16598  0.02723
    H32      Z     0.06618  0.01759  0.04229  0.06273 -0.11767 -0.02544
    H33      X     0.06196 -0.05207  0.02036  0.01339  0.00189  0.04389
    H33      Y     0.32466 -0.06010  0.05480  0.05526 -0.00031  0.13917
    H33      Z     0.20376 -0.22967  0.16568 -0.09399  0.02664  0.20872
    H34      X    -0.22651  0.17878 -0.11979  0.09221 -0.01610 -0.15576
    H34      Y    -0.30823  0.17037 -0.00267  0.09328 -0.00346 -0.09565
    H34      Z     0.02614 -0.09263  0.08388 -0.04957  0.01612  0.08932
    H35      X     0.01706 -0.07531  0.20341 -0.12990  0.00400 -0.26540
    H35      Y     0.04238  0.08474 -0.04417  0.06452 -0.00437  0.09953
    H35      Z     0.12263  0.07009  0.36753 -0.18246  0.00377 -0.24153
    H36      X    -0.02080  0.02009 -0.06523  0.03095  0.00340  0.13244
    H36      Y     0.00100  0.12869 -0.21050  0.13568  0.00032  0.33487
    H36      Z    -0.04799  0.13697 -0.08373 -0.08373  0.03031  0.34956
  
  vibration #           19       20       21       22       23       24
                  -------- -------- -------- -------- -------- --------
  frequencies       237.34   253.50   275.01   279.64   289.19   323.08
  intensities         1.94     1.60    14.55     6.81    16.52     4.14
  reduc. mass         3.17     1.04     3.28     3.79    10.53     6.03
  force const         0.11     0.04     0.15     0.17     0.52     0.37
    Rh1      X    -0.03470 -0.00656  0.00291 -0.01022  0.05278 -0.00027
    Rh1      Y     0.01391 -0.00077 -0.01722  0.02835  0.01415  0.01822
    Rh1      Z    -0.01384 -0.00996  0.03093  0.02391  0.00520 -0.01899
    O2       X     0.02094  0.00116 -0.03442 -0.01421 -0.01235 -0.00066
    O2       Y    -0.01862 -0.00567  0.01631 -0.00761 -0.00487  0.01765
    O2       Z     0.01268  0.00294 -0.12118 -0.00427  0.03102  0.03640
    C3       X     0.01400 -0.00053 -0.05043 -0.01136 -0.00393  0.00642
    C3       Y    -0.00210 -0.02005 -0.00574 -0.01731  0.00302 -0.01908
    C3       Z     0.02340  0.00382 -0.08255 -0.01048  0.01497  0.01620
    N4       X     0.02380  0.00211 -0.01336 -0.00876 -0.02394 -0.00430
    N4       Y     0.02506  0.00478 -0.00563  0.00921 -0.00664  0.00270
    N4       Z     0.03822  0.00893 -0.02452 -0.00534 -0.01327 -0.00160
    C5       X     0.04092  0.01317  0.07705  0.01342 -0.06381 -0.01529
    C5       Y    -0.00266  0.00813  0.06173  0.00925 -0.02264  0.00073
    C5       Z     0.03574  0.00994 -0.01394 -0.00648 -0.01937 -0.00073
    C6       X     0.07156  0.02319  0.04868  0.04965 -0.06825  0.01493
    C6       Y    -0.01152  0.00170  0.04950  0.01810 -0.00904  0.00661
    C6       Z    -0.00659 -0.00975  0.02331 -0.01841 -0.00955 -0.02584
    C7       X     0.02259  0.00625  0.04393  0.00769 -0.03529 -0.01522
    C7       Y    -0.01926  0.00097  0.03555 -0.00425  0.00257 -0.00001
    C7       Z     0.03158  0.00947 -0.02389 -0.00231 -0.01069  0.00393
    N8       X     0.00181 -0.00300 -0.01034  0.00862 -0.00248 -0.00018
    N8       Y     0.02301  0.00470 -0.03788  0.00163  0.00799  0.01293
    N8       Z    -0.03450 -0.00390 -0.00514 -0.00769  0.01882  0.00658
    H9       X     0.08663  0.00881  0.01590  0.08435 -0.06646  0.03419
    H9       Y     0.02179  0.01170  0.02792  0.03997 -0.02136  0.02888
    H9       Z    -0.03820 -0.02304  0.03869 -0.03448  0.00377 -0.04456
    H10      X     0.08354  0.03669  0.00157  0.03924 -0.06137  0.03520
    H10      Y    -0.06102 -0.01525  0.07295 -0.01527  0.01265 -0.02347
    H10      Z    -0.02141 -0.01210  0.01904 -0.03352  0.00013 -0.03168
    H11      X     0.01821  0.00055 -0.04411 -0.01379 -0.01122  0.00460
    H11      Y     0.01953 -0.01621 -0.04359 -0.01090  0.02835 -0.03851
    H11      Z     0.04830  0.01108  0.03257  0.00383 -0.03613 -0.01970
    H12      X     0.00590  0.00000 -0.10484 -0.00932  0.01742  0.03251
    H12      Y    -0.00857 -0.05191 -0.02810 -0.04621  0.01897 -0.06407
    H12      Z     0.02432  0.00178 -0.07959 -0.01277  0.01380  0.01109
    P13      X    -0.01963 -0.01997 -0.01608  0.01404 -0.04895  0.01671
    P13      Y    -0.00565 -0.03475  0.01741 -0.06935 -0.02134  0.03472
    P13      Z    -0.00352 -0.00047  0.02602  0.01321  0.01043  0.04519
    P14      X    -0.02016  0.00708 -0.02348  0.01380 -0.04522 -0.02038
    P14      Y    -0.00111  0.00462 -0.01599 -0.01412 -0.00032 -0.11185
    P14      Z    -0.01319  0.06206 -0.00396 -0.05454 -0.02070 -0.00817
    C15      X     0.07599  0.01331  0.03109 -0.04888  0.03442  0.00787
    C15      Y    -0.02700 -0.05296  0.01079 -0.05190 -0.03696  0.03627
    C15      Z    -0.02911  0.03317 -0.00145 -0.02682 -0.02706  0.02685
    C16      X     0.07705  0.03084  0.02981 -0.05343  0.03920 -0.01408
    C16      Y    -0.03050 -0.02072 -0.00725 -0.05468 -0.04174 -0.02932
    C16      Z    -0.03153  0.06600 -0.01890 -0.03010 -0.03222 -0.03552
    H17      X    -0.02162 -0.00261  0.00907 -0.00650  0.03698 -0.00036
    H17      Y     0.08121  0.01130 -0.01106  0.07034 -0.00431  0.02156
    H17      Z    -0.01146 -0.01675  0.09080  0.02556  0.01518 -0.04331
    H18      X     0.09714  0.02911 -0.00201  0.05022 -0.09109  0.05884
    H18      Y     0.02284 -0.00068 -0.01147  0.03414 -0.00835  0.01310
    H18      Z    -0.01503 -0.05174  0.05106  0.03096  0.00745 -0.01298
    C19      X    -0.00254  0.05733  0.00433  0.07334  0.01490  0.00706
    C19      Y     0.04948  0.05222  0.01024 -0.01235  0.03585 -0.01369
    C19      Z     0.04474 -0.01479 -0.02826  0.00659 -0.03016 -0.00056
    C20      X    -0.00624 -0.04467 -0.02548 -0.03481 -0.04896 -0.00982
    C20      Y    -0.04618  0.04965 -0.02156  0.06136 -0.00875 -0.00502
    C20      Z     0.00436 -0.00388  0.00031 -0.01335  0.03119 -0.00723
    C21      X     0.03273 -0.07649 -0.01447  0.03986 -0.00124 -0.05516
    C21      Y    -0.00418  0.02748  0.01313  0.00218 -0.01919  0.01596
    C21      Z     0.05936 -0.03540  0.02974 -0.01922  0.03553  0.03550
    C22      X    -0.03939  0.05280  0.00486 -0.00975 -0.03327  0.07327
    C22      Y    -0.02793 -0.00036  0.01887 -0.01019  0.02777 -0.00661
    C22      Z    -0.01557 -0.08577 -0.01136  0.03681 -0.01828  0.01427
    H23      X     0.07889  0.13930 -0.00752  0.13851  0.07521 -0.03280
    H23      Y     0.03186  0.02467  0.01175 -0.03097  0.01841 -0.00030
    H23      Z     0.04482  0.04765 -0.02046  0.03393 -0.00211 -0.02921
    H24      X     0.01426 -0.06737 -0.04606 -0.06744 -0.02879 -0.06980
    H24      Y    -0.12412  0.13063 -0.05064  0.13802 -0.00582 -0.01192
    H24      Z     0.01807 -0.01835  0.01113 -0.02462  0.02642  0.00614
    H25      X     0.03553 -0.11750 -0.04565  0.03062  0.02115 -0.17995
    H25      Y    -0.00742  0.03679  0.01530  0.00214 -0.02354  0.02732
    H25      Z     0.09049 -0.06961  0.05414 -0.00829  0.04948  0.09825
    H26      X    -0.03224  0.17374  0.01141 -0.09033 -0.04192  0.05618
    H26      Y    -0.04793 -0.07703  0.02016  0.02671  0.02509  0.04449
    H26      Z    -0.01543 -0.10446 -0.01290  0.05058 -0.01631  0.01294
    H27      X     0.18296  0.03554  0.08506 -0.10864  0.12926  0.00833
    H27      Y    -0.04529 -0.09634  0.01308 -0.01526 -0.04125  0.08676
    H27      Z    -0.04860  0.03839 -0.01400 -0.02154 -0.04688  0.01452
    H28      X     0.18610  0.06678  0.08471 -0.11767  0.13809 -0.03000
    H28      Y    -0.05274 -0.03597 -0.01436 -0.04559 -0.06357 -0.00682
    H28      Z    -0.05170  0.09069 -0.04620  0.00035 -0.04294 -0.11440
    H29      X    -0.03196 -0.01846 -0.00970  0.03554 -0.03511  0.04345
    H29      Y    -0.05900  0.06819  0.05749 -0.04216  0.05425  0.10050
    H29      Z    -0.01758 -0.16716 -0.01719  0.09332 -0.00920  0.01500
    H30      X    -0.07879  0.06036  0.04597 -0.00884 -0.00336  0.20834
    H30      Y    -0.01662  0.00827  0.00909 -0.01443  0.02159 -0.04415
    H30      Z    -0.02367 -0.14203 -0.01668  0.05841 -0.02784  0.02861
    H31      X     0.11883 -0.18144  0.02384  0.07722  0.06449 -0.01510
    H31      Y     0.01442  0.00664  0.02721  0.00496 -0.01124  0.05944
    H31      Z     0.03902 -0.01072  0.01944 -0.02722  0.02124  0.01824
    H32      X     0.00449 -0.01920 -0.00948  0.03167 -0.03350  0.00282
    H32      Y    -0.01499  0.07456  0.03288  0.00505 -0.04220  0.10653
    H32      Z     0.12841 -0.13046  0.04969  0.01203  0.09449  0.01788
    H33      X     0.01109  0.01134 -0.02208  0.04309 -0.02986  0.00222
    H33      Y     0.11102  0.11397  0.00915  0.04555  0.09152 -0.03089
    H33      Z     0.09951 -0.07953 -0.08087 -0.02853 -0.09450 -0.01817
    H34      X    -0.07428  0.10516  0.06297  0.09515  0.07401  0.03951
    H34      Y     0.06630  0.11213  0.00672  0.01695  0.05740 -0.04947
    H34      Z     0.04714 -0.02830 -0.03153 -0.00011 -0.03787  0.00335
    H35      X    -0.00741 -0.08386 -0.00345 -0.13082 -0.06164  0.02488
    H35      Y    -0.04212  0.05486 -0.02465  0.08050 -0.00618 -0.01180
    H35      Z    -0.06846  0.07359 -0.03825  0.06406  0.03876 -0.03515
    H36      X    -0.01241 -0.01191 -0.03003  0.03650 -0.04572 -0.01006
    H36      Y    -0.02319  0.05457 -0.02662  0.10978  0.00150 -0.02595
    H36      Z     0.05959 -0.07723  0.00243 -0.10700  0.04008 -0.04252
  
  vibration #           25       26       27       28       29       30
                  -------- -------- -------- -------- -------- --------
  frequencies       337.19   363.31   381.80   429.50   435.11   481.23
  intensities        20.08     4.36    26.20     5.99     3.25    14.72
  reduc. mass         1.51     6.78     3.60     1.44     1.32     2.33
  force const         0.10     0.53     0.31     0.16     0.15     0.32
    Rh1      X    -0.00631 -0.00526  0.00119 -0.00097 -0.00019 -0.00092
    Rh1      Y     0.02240 -0.01488 -0.01428  0.00740  0.00792  0.00426
    Rh1      Z    -0.00831 -0.03240 -0.00189 -0.00239 -0.00252  0.00160
    O2       X     0.01457 -0.00115 -0.06894 -0.03320 -0.02564  0.02034
    O2       Y    -0.08722 -0.00422 -0.03053  0.00809  0.00833 -0.03952
    O2       Z    -0.04966  0.01445  0.14174  0.04906  0.03437 -0.01441
    C3       X     0.00053  0.00046 -0.01928 -0.01198 -0.01188  0.00506
    C3       Y     0.11474  0.01132  0.04104 -0.01472 -0.01291  0.05236
    C3       Z    -0.01538  0.00612  0.02618  0.00863  0.00757  0.01448
    N4       X     0.01752 -0.00143 -0.04681 -0.01283 -0.01025  0.01276
    N4       Y    -0.01799 -0.00460 -0.02811  0.01924  0.01523 -0.15820
    N4       Z    -0.00272 -0.00297 -0.04897  0.00316  0.00612 -0.00021
    C5       X    -0.00155  0.00096  0.02248  0.05055  0.04095  0.00582
    C5       Y    -0.04895  0.00381  0.03724  0.00518  0.00018  0.02677
    C5       Z    -0.00958 -0.00062 -0.04354 -0.00897 -0.00566  0.03622
    C6       X    -0.03329  0.01160  0.11242 -0.08382 -0.07831 -0.00802
    C6       Y    -0.01157  0.00518  0.07951 -0.03493 -0.03413 -0.01733
    C6       Z     0.10862  0.00747  0.02257 -0.00846 -0.00712 -0.08250
    C7       X     0.01535 -0.00162  0.01336  0.13650  0.12096  0.02947
    C7       Y    -0.02247  0.00368  0.02956  0.03580  0.02864  0.11444
    C7       Z    -0.02900 -0.00629 -0.06523  0.01816  0.01991  0.01678
    N8       X     0.02612  0.00062  0.01864 -0.01665 -0.01495 -0.06408
    N8       Y    -0.02985 -0.00179 -0.03094 -0.06182 -0.05261  0.00763
    N8       Z    -0.01318  0.00260  0.00158 -0.04692 -0.04338  0.04189
    H9       X    -0.02703 -0.02372  0.05177 -0.09799 -0.07460  0.00130
    H9       Y    -0.11157 -0.00829  0.03181 -0.05718 -0.04914  0.13188
    H9       Z     0.21533  0.01398  0.05901  0.01335  0.01074 -0.23484
    H10      X    -0.03272  0.01312  0.08300 -0.06425 -0.06258  0.05059
    H10      Y     0.13349  0.01738  0.12278  0.02003  0.00800 -0.20674
    H10      Z     0.16131  0.01251  0.03026  0.01613  0.01167 -0.13620
    H11      X     0.00040  0.00012 -0.05450 -0.02635 -0.02186  0.00235
    H11      Y     0.25982  0.00746  0.07372 -0.01087 -0.00932  0.06900
    H11      Z     0.03832 -0.00540 -0.02955  0.02770  0.02707  0.02877
    H12      X    -0.03676  0.01347  0.09240  0.02078  0.00989 -0.01972
    H12      Y     0.37368  0.03414  0.13782 -0.05713 -0.05008  0.24590
    H12      Z     0.00597  0.00688  0.02301  0.00290  0.00323  0.03025
    P13      X     0.00358  0.01343 -0.00598  0.02044 -0.02169  0.00011
    P13      Y    -0.00254  0.00258  0.00020 -0.00617  0.00669 -0.00165
    P13      Z     0.00697  0.11075 -0.01962 -0.00265  0.00571 -0.00001
    P14      X     0.00003  0.00277 -0.00281 -0.01693  0.02332  0.00116
    P14      Y    -0.02451  0.04641  0.00175  0.00183 -0.00673 -0.00139
    P14      Z     0.00261 -0.01610  0.00361  0.00273 -0.00676  0.00070
    C15      X    -0.00445  0.01734  0.00568 -0.10149  0.11392 -0.00073
    C15      Y    -0.01057  0.03934 -0.00576  0.02405 -0.02514  0.00183
    C15      Z     0.01760  0.03955 -0.01337  0.01611 -0.01416 -0.00274
    C16      X    -0.00236  0.00718 -0.00545  0.09945 -0.11388  0.00038
    C16      Y    -0.02184  0.01751  0.00468 -0.02001  0.01952  0.00257
    C16      Z     0.00705  0.00862 -0.00228 -0.02111  0.02213 -0.00223
    H17      X    -0.00719 -0.00546  0.00628  0.00365  0.00074 -0.00079
    H17      Y     0.05727 -0.02017 -0.03734  0.05513  0.02772  0.03072
    H17      Z    -0.00879 -0.04132  0.00608 -0.02369  0.00149  0.02704
    H18      X     0.01657 -0.01846  0.00650  0.01479  0.02568  0.01668
    H18      Y     0.02350 -0.00804  0.00095 -0.01043 -0.00444 -0.00099
    H18      Z     0.05999 -0.03420 -0.02889 -0.03659 -0.00387 -0.03623
    C19      X     0.00754  0.06152 -0.01240  0.01417 -0.01428  0.00165
    C19      Y    -0.00027 -0.04811  0.00967 -0.02468  0.02636 -0.00124
    C19      Z     0.00832  0.00823 -0.00685  0.00982 -0.00996  0.00057
    C20      X    -0.00322 -0.07375  0.00933  0.01922 -0.02867  0.00058
    C20      Y     0.00419 -0.01505 -0.00164  0.01748 -0.01851  0.00130
    C20      Z     0.00163  0.01312 -0.00250 -0.01353  0.01406  0.00049
    C21      X    -0.01296  0.03183 -0.00407 -0.01209  0.01972  0.00020
    C21      Y    -0.00181 -0.00201 -0.00188 -0.00479  0.00781  0.00015
    C21      Z     0.00123 -0.02303  0.00305  0.02217 -0.02888  0.00029
    C22      X     0.01578 -0.04100 -0.00092 -0.01912  0.02341 -0.00110
    C22      Y    -0.01362  0.01536  0.00519  0.00782 -0.01890 -0.00389
    C22      Z    -0.00146 -0.01154  0.00057 -0.01620  0.02063  0.00074
    H23      X     0.01563  0.03537 -0.00749 -0.03373  0.03927  0.00095
    H23      Y    -0.00316 -0.03361  0.00750 -0.01191  0.01293 -0.00121
    H23      Z     0.01622 -0.04790 -0.00077 -0.00915  0.00636  0.00127
    H24      X     0.00126 -0.20973  0.02902  0.01834 -0.03851 -0.00260
    H24      Y     0.00273 -0.03295 -0.01042  0.04112 -0.04512  0.00879
    H24      Z     0.00115  0.04376 -0.00451 -0.01846  0.02167 -0.00058
    H25      X    -0.03326  0.08865  0.00019 -0.01129  0.00953 -0.00025
    H25      Y     0.00088 -0.00695 -0.00243 -0.00653  0.01065 -0.00008
    H25      Z     0.00223 -0.05493  0.00214  0.04302 -0.04784  0.00329
    H26      X     0.01807 -0.04731 -0.00488  0.02461 -0.02813  0.00063
    H26      Y    -0.02111 -0.00819  0.00973 -0.02302  0.01927 -0.00040
    H26      Z    -0.00152 -0.00800  0.00100 -0.02327  0.02858 -0.00022
    H27      X    -0.01093  0.03563  0.01594 -0.18869  0.20961 -0.00198
    H27      Y    -0.00414  0.08798 -0.01659  0.04686 -0.04224  0.00341
    H27      Z     0.01734  0.02539 -0.01328  0.03020 -0.03141 -0.00277
    H28      X    -0.00531  0.01658 -0.00657  0.18188 -0.20925  0.00026
    H28      Y    -0.01905  0.01707  0.00397 -0.03637  0.03975  0.00269
    H28      Z    -0.00187  0.00560  0.00105 -0.03828  0.03679 -0.00277
    H29      X     0.00996 -0.02166 -0.00129 -0.03859  0.04909 -0.00062
    H29      Y     0.00447 -0.03049  0.01453  0.01337 -0.03893 -0.00624
    H29      Z    -0.00250 -0.00145  0.00421 -0.04484  0.05191 -0.00008
    H30      X     0.02717 -0.09533  0.01140 -0.03143  0.02102 -0.00747
    H30      Y    -0.01416  0.03127  0.00211  0.01407 -0.02283 -0.00251
    H30      Z    -0.01470 -0.02199  0.00022 -0.03510  0.04731  0.00212
    H31      X    -0.01782  0.02654 -0.00386  0.04110 -0.03688  0.00224
    H31      Y    -0.00162 -0.02738 -0.00116  0.00957 -0.00448  0.00229
    H31      Z     0.00195 -0.01660  0.00282  0.00942 -0.01606 -0.00056
    H32      X     0.00130  0.00063 -0.00647 -0.02507  0.03824  0.00023
    H32      Y     0.01595 -0.04449 -0.00558 -0.00629  0.01636  0.00006
    H32      Z    -0.01115 -0.00225  0.00372  0.06077 -0.07216  0.00015
    H33      X     0.00679  0.01580 -0.00801  0.02683 -0.03144  0.00148
    H33      Y     0.00459 -0.02558  0.00796 -0.06106  0.06922 -0.00197
    H33      Z     0.00885 -0.07355  0.00120  0.01904 -0.02550 -0.00003
    H34      X     0.00437  0.16578 -0.02225  0.00778 -0.00083  0.00186
    H34      Y     0.00934 -0.12062  0.01558 -0.04386  0.04382 -0.00051
    H34      Z     0.00698  0.01330 -0.00725  0.01309 -0.01346  0.00043
    H35      X    -0.02016 -0.06266  0.01031 -0.02729  0.02539  0.00330
    H35      Y     0.00824 -0.01455 -0.00197  0.02758 -0.03034  0.00050
    H35      Z     0.00601 -0.04582 -0.00442  0.01716 -0.02194  0.00362
    H36      X     0.00658 -0.03200  0.00017  0.04414 -0.05448 -0.00064
    H36      Y     0.01842 -0.01361 -0.00257  0.04316 -0.04876 -0.00377
    H36      Z     0.00152 -0.08852  0.01782 -0.03107  0.02707 -0.00450
  
  vibration #           31       32       33       34       35       36
                  -------- -------- -------- -------- -------- --------
  frequencies       519.82   570.27   578.38   598.93   658.08   666.31
  intensities        13.01    23.87    57.92    11.78    13.45     1.55
  reduc. mass         2.52     1.99     0.66     3.79     1.21     0.42
  force const         0.40     0.38     0.13     0.80     0.31     0.11
    Rh1      X    -0.00028  0.00219  0.00100  0.00107 -0.00080 -0.00090
    Rh1      Y     0.00373  0.00458  0.00035  0.00135  0.00324 -0.00006
    Rh1      Z     0.00109 -0.00364 -0.00040 -0.00009  0.00789  0.00855
    O2       X     0.00413 -0.03158  0.01195 -0.01483  0.00398  0.00957
    O2       Y    -0.00415 -0.02352 -0.05207 -0.01090 -0.00834 -0.01360
    O2       Z    -0.00633  0.01782 -0.00846  0.02544 -0.00485 -0.01013
    C3       X     0.00155 -0.02974  0.01093  0.01513 -0.00195 -0.00294
    C3       Y    -0.00409  0.02695  0.06734  0.01748  0.00468  0.00544
    C3       Z    -0.00145  0.01830  0.00061 -0.03865  0.00761  0.01444
    N4       X     0.00016  0.01713 -0.01876  0.00033 -0.00042 -0.00463
    N4       Y    -0.00010  0.00578  0.03744 -0.06840  0.00354  0.00538
    N4       Z    -0.00032  0.05031 -0.03012 -0.06183  0.00772  0.01077
    C5       X    -0.00812  0.12322 -0.04182  0.08144  0.00847  0.01029
    C5       Y    -0.00620  0.05872 -0.02021  0.09068  0.00394  0.00622
    C5       Z    -0.00225  0.04174 -0.01619 -0.00630  0.00326  0.00417
    C6       X     0.00035 -0.06753  0.02141 -0.05907 -0.00245 -0.00616
    C6       Y     0.00165 -0.04271  0.01277  0.04707 -0.00547 -0.01496
    C6       Z     0.00424 -0.01037  0.00932 -0.02196 -0.01424 -0.02796
    C7       X     0.00352 -0.09260  0.04014 -0.02802 -0.01243 -0.02278
    C7       Y    -0.00476 -0.01957  0.01304 -0.14744 -0.00151 -0.00308
    C7       Z     0.00603 -0.12756  0.06446  0.14112 -0.01445 -0.02237
    N8       X    -0.00011  0.05815 -0.03260  0.00785  0.00581  0.00676
    N8       Y     0.00006 -0.01136  0.01045  0.04654 -0.00041  0.00088
    N8       Z    -0.00276  0.00847 -0.00231 -0.02290  0.00156  0.00388
    H9       X    -0.03763  0.01279  0.03780 -0.08361 -0.12906 -0.28899
    H9       Y    -0.02473  0.04188 -0.01289  0.02117 -0.05912 -0.12886
    H9       Z     0.02438 -0.08112  0.03817  0.00314  0.01653  0.03385
    H10      X     0.03657 -0.12345  0.01482 -0.07968  0.13268  0.23691
    H10      Y     0.03536 -0.12625  0.02675  0.10265  0.06836  0.13298
    H10      Z     0.02621 -0.05625  0.01403 -0.00842  0.04870  0.09097
    H11      X    -0.00130 -0.00144  0.04687 -0.01769  0.00310  0.00285
    H11      Y     0.07081 -0.35424 -0.80889  0.03277 -0.05614 -0.05652
    H11      Z     0.00447  0.07633 -0.18297 -0.02279 -0.00110 -0.00587
    H12      X    -0.00205 -0.04733  0.02303  0.06740 -0.00907 -0.01523
    H12      Y    -0.00796  0.07211  0.16587  0.07138  0.01225  0.01626
    H12      Z    -0.00141  0.02410  0.00472 -0.04076  0.00886  0.01624
    P13      X    -0.01292 -0.00091 -0.00077  0.00053 -0.00684  0.00540
    P13      Y    -0.05444 -0.00498 -0.00202  0.00003 -0.02424  0.01194
    P13      Z    -0.00517 -0.00066 -0.00056  0.00009 -0.04293  0.03823
    P14      X     0.01176  0.00180 -0.00007 -0.00034 -0.01240  0.00233
    P14      Y     0.00431  0.00293  0.00129 -0.00081 -0.05656  0.01637
    P14      Z     0.05063  0.00490  0.00283 -0.00080 -0.01427  0.00958
    C15      X    -0.00344 -0.00006 -0.00075  0.00016  0.02894 -0.01646
    C15      Y     0.07360  0.00563  0.00057  0.00015  0.06823 -0.04396
    C15      Z    -0.13618 -0.00993 -0.00778  0.00184  0.07948 -0.03969
    C16      X     0.00685 -0.00028  0.00027 -0.00025  0.02869 -0.01905
    C16      Y     0.13071  0.00929  0.00314 -0.00090  0.07711 -0.04873
    C16      Z    -0.08005 -0.00604 -0.00473  0.00053  0.06827 -0.03440
    H17      X    -0.00082  0.02257 -0.00840  0.00800 -0.00324  0.00223
    H17      Y     0.00149  0.14073 -0.03510  0.00996 -0.05400  0.04893
    H17      Z     0.00439 -0.00441  0.02110  0.02768  0.02367  0.09738
    H18      X     0.02106  0.04913 -0.03327  0.01614  0.08235  0.12235
    H18      Y    -0.00099 -0.00787  0.00585 -0.00328 -0.01985 -0.04478
    H18      Z    -0.11265  0.10874  0.02494 -0.01714 -0.35213 -0.67812
    C19      X     0.03499  0.00429  0.00243 -0.00038  0.02351 -0.03737
    C19      Y    -0.03823 -0.00432 -0.00237  0.00075 -0.02513  0.03580
    C19      Z     0.01696  0.00309  0.00078 -0.00025  0.00585 -0.01395
    C20      X    -0.04366 -0.00319 -0.00195 -0.00187 -0.04066  0.04680
    C20      Y    -0.01853 -0.00173 -0.00071  0.00027 -0.01568  0.01454
    C20      Z     0.02293  0.00493  0.00041 -0.00127  0.01721 -0.02336
    C21      X    -0.03480 -0.00361 -0.00486  0.00096  0.06195  0.00270
    C21      Y    -0.01131 -0.00117 -0.00186  0.00055  0.01297  0.00273
    C21      Z     0.03610  0.00386  0.00410 -0.00104 -0.05257  0.00014
    C22      X     0.04121  0.00900  0.00533 -0.00004 -0.06408  0.01354
    C22      Y    -0.02644 -0.00591 -0.00279  0.00146  0.03751 -0.00651
    C22      Z     0.02176  0.00317  0.00166 -0.00054 -0.02504  0.00597
    H23      X     0.05113  0.00735  0.00469 -0.00083  0.07238 -0.07603
    H23      Y    -0.04173 -0.00495 -0.00343  0.00113 -0.04441  0.05145
    H23      Z     0.01137  0.00290  0.00421 -0.00185  0.05955 -0.06026
    H24      X    -0.04387 -0.00164  0.00203 -0.00537  0.03604 -0.01992
    H24      Y    -0.01916 -0.00265  0.00076  0.00264  0.02354 -0.01955
    H24      Z     0.02284  0.00480 -0.00070 -0.00115 -0.00667 -0.00247
    H25      X    -0.04444 -0.00336 -0.00384  0.00144 -0.01463  0.00046
    H25      Y    -0.01024 -0.00093 -0.00166  0.00045  0.01508  0.00397
    H25      Z     0.04320  0.00159  0.00062 -0.00062  0.03844 -0.00710
    H26      X     0.05578  0.01079  0.00511 -0.00221 -0.10336  0.02319
    H26      Y    -0.01744 -0.00932 -0.00508  0.00112  0.11586 -0.02829
    H26      Z     0.01831  0.00321  0.00211 -0.00009 -0.02420  0.00610
    H27      X     0.00131  0.00096 -0.00385  0.00249  0.02080 -0.00636
    H27      Y     0.07558  0.00796  0.00105  0.00082  0.01543 -0.01117
    H27      Z    -0.13668 -0.01064 -0.00725  0.00119  0.09514 -0.05013
    H28      X     0.00178 -0.00084 -0.00336  0.00136  0.02212 -0.00974
    H28      Y     0.13062  0.00997  0.00347 -0.00103  0.09367 -0.06066
    H28      Z    -0.07767 -0.00855 -0.00262 -0.00055  0.01201  0.00126
    H29      X     0.02843  0.00827  0.00266  0.00073 -0.05894  0.01440
    H29      Y    -0.01368 -0.00869 -0.00250  0.00205  0.07764 -0.02352
    H29      Z     0.00763  0.00071 -0.00242  0.00154  0.00173 -0.00031
    H30      X     0.04655  0.00358  0.00697  0.00035  0.02151 -0.01381
    H30      Y    -0.02868 -0.00424 -0.00329  0.00168  0.00568  0.00307
    H30      Z     0.02846  0.00193  0.00222 -0.00236  0.02680 -0.00742
    H31      X    -0.04641 -0.00915 -0.00840  0.00230  0.12677 -0.01207
    H31      Y    -0.00007 -0.00225 -0.00302  0.00096  0.08367 -0.00111
    H31      Z     0.03648  0.00515  0.00498 -0.00141 -0.08025  0.00386
    H32      X    -0.02141 -0.00219 -0.00358  0.00008  0.08377  0.00614
    H32      Y     0.00057 -0.00099 -0.00154 -0.00050  0.06163  0.00396
    H32      Z     0.01595 -0.00067  0.00077 -0.00024 -0.02979 -0.00938
    H33      X     0.02357  0.00360  0.00313 -0.00224  0.03131 -0.05142
    H33      Y    -0.01693 -0.00161 -0.00122  0.00119 -0.00191  0.01881
    H33      Z     0.00367  0.00301  0.00266 -0.00365  0.03092 -0.04800
    H34      X     0.04121  0.00168  0.00008  0.00258 -0.01581  0.01099
    H34      Y    -0.04142 -0.00272  0.00111 -0.00027  0.03859 -0.02196
    H34      Z     0.01671  0.00297  0.00035 -0.00032 -0.00210 -0.00758
    H35      X    -0.06793 -0.00550 -0.00461  0.00090 -0.08350  0.07473
    H35      Y    -0.01328 -0.00094 -0.00025 -0.00055 -0.00932  0.01035
    H35      Z     0.02299  0.00264  0.00342  0.00031  0.08389 -0.07396
    H36      X    -0.02505 -0.00122 -0.00089 -0.00172 -0.03789  0.04703
    H36      Y     0.00031  0.00136  0.00086 -0.00146  0.00961 -0.00302
    H36      Z     0.00920  0.00395  0.00085 -0.00288  0.05272 -0.05306
  
  vibration #           37       38       39       40       41       42
                  -------- -------- -------- -------- -------- --------
  frequencies       698.53   702.23   717.06   724.34   736.26   743.46
  intensities        13.73    40.36     3.41     3.87     5.38    33.92
  reduc. mass         0.58     2.36     1.47     1.23     2.04     0.88
  force const         0.17     0.69     0.45     0.38     0.65     0.29
    Rh1      X    -0.00242  0.00073  0.00029 -0.00071  0.00017  0.00072
    Rh1      Y     0.01107  0.00158 -0.00273 -0.00030 -0.00222  0.00469
    Rh1      Z     0.00117 -0.00608  0.00114 -0.00010 -0.00094  0.00320
    O2       X     0.01427 -0.00351 -0.01444 -0.00150  0.00925 -0.05836
    O2       Y    -0.00505  0.00136  0.00156 -0.00091  0.00129 -0.00278
    O2       Z    -0.01343  0.00163  0.00980  0.00073 -0.00427  0.03507
    C3       X    -0.00926  0.00045  0.00636  0.00060 -0.00336  0.01739
    C3       Y     0.00242 -0.00027  0.00002  0.00058 -0.00181  0.00548
    C3       Z     0.03553 -0.00670 -0.03078 -0.00383  0.01705 -0.10836
    N4       X     0.00186  0.00084  0.00691  0.00191 -0.01058  0.04430
    N4       Y    -0.01679  0.00103  0.01067  0.00091 -0.00166  0.02836
    N4       Z     0.03719 -0.00502 -0.02295 -0.00232  0.00571 -0.05708
    C5       X     0.00353 -0.00327  0.00668  0.00046 -0.00632  0.04631
    C5       Y     0.01447 -0.00329 -0.00936 -0.00081  0.00274 -0.02524
    C5       Z     0.00340 -0.00132  0.00327  0.00110 -0.00578  0.02831
    C6       X    -0.02350  0.00189  0.01012  0.00107 -0.00103  0.01194
    C6       Y     0.03802  0.00051 -0.03014 -0.00335  0.00856 -0.10280
    C6       Z    -0.01352  0.01121  0.00959  0.00106 -0.00597  0.03273
    C7       X     0.01629  0.00397 -0.01165 -0.00086  0.00168 -0.03222
    C7       Y    -0.02441  0.00203  0.01583  0.00108 -0.00467  0.04313
    C7       Z    -0.01923  0.00612  0.00937  0.00052 -0.00137  0.01712
    N8       X     0.02738 -0.00313 -0.01579 -0.00118  0.00341 -0.04019
    N8       Y    -0.02327  0.00190  0.01469  0.00111 -0.00248  0.03781
    N8       Z    -0.02422  0.00007  0.01583  0.00117 -0.00422  0.04216
    H9       X     0.06106  0.06732 -0.00463 -0.00569 -0.03978  0.06330
    H9       Y     0.07659  0.02548 -0.04186 -0.00561 -0.00850 -0.10763
    H9       Z    -0.03440 -0.00158  0.01779  0.00189  0.00403  0.04576
    H10      X     0.01146 -0.07283  0.00615  0.00045  0.00256  0.06908
    H10      Y     0.00645 -0.03674 -0.02026 -0.00224  0.02810 -0.10783
    H10      Z    -0.01734 -0.02213  0.01310  0.00136  0.00184  0.04933
    H11      X     0.00253 -0.00042  0.00227  0.00150 -0.00539  0.01758
    H11      Y    -0.03716  0.00262  0.01323  0.00026  0.00016  0.02354
[...]
    C3       Y    -0.00003  0.00001 -0.00001  0.00000 -0.00001  0.00001
    C3       Z    -0.00014 -0.00015  0.00020 -0.00009  0.00005 -0.00002
    N4       X    -0.00005  0.00001 -0.00001  0.00000  0.00001 -0.00001
    N4       Y     0.00005  0.00000 -0.00000  0.00000  0.00000  0.00003
    N4       Z    -0.00001 -0.00001  0.00001 -0.00001 -0.00001  0.00002
    C5       X    -0.00003 -0.00000 -0.00002  0.00000  0.00010 -0.00012
    C5       Y     0.00004  0.00001  0.00001 -0.00000 -0.00009  0.00020
    C5       Z     0.00003  0.00001 -0.00002  0.00000 -0.00007 -0.00001
    C6       X     0.00007  0.00004 -0.00001  0.00000 -0.00007 -0.00004
    C6       Y    -0.00004 -0.00009 -0.00015  0.00005 -0.00046 -0.00226
    C6       Z    -0.00001  0.00003  0.00002  0.00000 -0.00001  0.00030
    C7       X    -0.00000  0.00002  0.00002 -0.00000 -0.00020  0.00006
    C7       Y    -0.00004 -0.00001 -0.00001  0.00001  0.00039 -0.00010
    C7       Z    -0.00002 -0.00002 -0.00001  0.00001  0.00021 -0.00034
    N8       X    -0.00002 -0.00001 -0.00001  0.00000  0.00013 -0.00010
    N8       Y     0.00001  0.00001  0.00001 -0.00000 -0.00015  0.00006
    N8       Z     0.00001  0.00001  0.00001 -0.00000 -0.00011  0.00005
    H9       X    -0.00014 -0.00021 -0.00024  0.00010 -0.00067 -0.00370
    H9       Y     0.00003  0.00045  0.00148 -0.00049  0.00391  0.01825
    H9       Z     0.00006  0.00034  0.00146 -0.00051  0.00389  0.01815
    H10      X    -0.00017  0.00025  0.00042 -0.00013  0.00111  0.00502
    H10      Y    -0.00013  0.00033  0.00053 -0.00015  0.00147  0.00674
    H10      Z     0.00023 -0.00056 -0.00157  0.00055 -0.00409 -0.01994
    H11      X     0.00034 -0.00001 -0.00022  0.00003  0.00010 -0.00011
    H11      Y    -0.00021 -0.00001 -0.00001 -0.00000 -0.00004 -0.00011
    H11      Z     0.00004 -0.00008 -0.00005 -0.00001  0.00017 -0.00009
    H12      X     0.00008  0.00023 -0.00026  0.00013 -0.00002 -0.00001
    H12      Y    -0.00007 -0.00014  0.00014 -0.00007  0.00002 -0.00008
    H12      Z     0.00090  0.00172 -0.00183  0.00102 -0.00054  0.00028
    P13      X    -0.00001 -0.00004 -0.00001  0.00005 -0.00001 -0.00016
    P13      Y     0.00002 -0.00030 -0.00000  0.00023 -0.00002  0.00015
    P13      Z     0.00001 -0.00025 -0.00001 -0.00007 -0.00000 -0.00005
    P14      X     0.00011 -0.00001  0.00000 -0.00005  0.00018  0.00001
    P14      Y     0.00016 -0.00001 -0.00019  0.00004  0.00002  0.00000
    P14      Z     0.00022  0.00000 -0.00028 -0.00024 -0.00014  0.00002
    C15      X     0.00007  0.00109 -0.00027 -0.01221  0.00015 -0.00016
    C15      Y     0.00008  0.00125 -0.00035 -0.01212  0.00012 -0.00017
    C15      Z     0.00010  0.00596 -0.00129 -0.05573  0.00093 -0.00035
    C16      X    -0.00050 -0.00070  0.00045  0.01275 -0.00007  0.00021
    C16      Y    -0.00114 -0.00277  0.00267  0.05124 -0.00053  0.00071
    C16      Z    -0.00022 -0.00083  0.00069  0.01210 -0.00007  0.00020
    H17      X    -0.00024 -0.00113 -0.00048 -0.00022  0.00032 -0.00046
    H17      Y     0.00004 -0.00020  0.00026  0.00002 -0.00001  0.00002
    H17      Z     0.00001  0.00040 -0.00015  0.00008  0.00002 -0.00021
    H18      X    -0.00020 -0.00022  0.00006 -0.00010  0.00022 -0.00010
    H18      Y    -0.00062  0.00104  0.00065  0.00004  0.00015  0.00009
    H18      Z     0.00009  0.00003 -0.00007  0.00005 -0.00005  0.00000
    C19      X     0.00004 -0.00972 -0.00004 -0.00120  0.00001  0.00265
    C19      Y     0.00005 -0.06187 -0.00010 -0.00513  0.00012  0.00160
    C19      Z     0.00002 -0.06212 -0.00007 -0.00495  0.00014 -0.00240
    C20      X     0.00020 -0.00266  0.00005 -0.00015 -0.00087 -0.04998
    C20      Y     0.00043 -0.00629  0.00000 -0.00247  0.00110  0.06068
    C20      Z     0.00041 -0.00565  0.00004 -0.00132 -0.00075 -0.04201
    C21      X    -0.00143 -0.00008 -0.01466  0.00016 -0.00202  0.00040
    C21      Y    -0.00473 -0.00004 -0.06487  0.00273  0.00150 -0.00035
    C21      Z    -0.00466 -0.00010 -0.05884  0.00179 -0.00201  0.00030
    C22      X     0.02785  0.00007 -0.00245  0.00106  0.05511 -0.00097
    C22      Y     0.05713  0.00005 -0.00438  0.00136  0.03775 -0.00063
    C22      Z     0.06178 -0.00001 -0.00418  0.00019 -0.05916  0.00104
    H23      X    -0.00008  0.15328  0.00024  0.01265 -0.00034 -0.00311
    H23      Y    -0.00045  0.66591  0.00106  0.05182 -0.00124 -0.01677
    H23      Z    -0.00007  0.09701  0.00017  0.00821 -0.00022 -0.00327
    H24      X    -0.00093  0.01217 -0.00009  0.00314  0.00096  0.05026
    H24      Y    -0.00101  0.01431 -0.00008  0.00334  0.00139  0.07629
    H24      Z    -0.00470  0.06484 -0.00025  0.01812  0.00500  0.26989
    H25      X     0.00496  0.00015  0.08093 -0.00376 -0.00234  0.00035
    H25      Y     0.04636  0.00083  0.62568 -0.02603 -0.01038  0.00206
    H25      Z     0.00474 -0.00000  0.05755 -0.00183 -0.00145  0.00030
    H26      X    -0.13491 -0.00005  0.01022 -0.00011  0.08325 -0.00147
    H26      Y    -0.06068 -0.00001  0.00405 -0.00076  0.04490 -0.00072
    H26      Z    -0.66455 -0.00027  0.04799 -0.00367  0.34628 -0.00599
    H27      X    -0.00031 -0.01508  0.00396  0.14606 -0.00214  0.00106
    H27      Y    -0.00055 -0.01398  0.00350  0.14776 -0.00217  0.00130
    H27      Z    -0.00290 -0.06868  0.01703  0.66472 -0.00987  0.00475
    H28      X     0.00243  0.00942 -0.00746 -0.15235  0.00146 -0.00229
    H28      Y     0.01244  0.03650 -0.03011 -0.61593  0.00610 -0.00926
    H28      Z     0.00163  0.00826 -0.00567 -0.14236  0.00102 -0.00215
    H29      X    -0.02972 -0.00074  0.00752 -0.00800 -0.66524  0.01188
    H29      Y     0.00057 -0.00023  0.00201 -0.00222 -0.19446  0.00356
    H29      Z     0.03572  0.00048 -0.00549  0.00539  0.43025 -0.00765
    H30      X    -0.16661 -0.00014  0.01154 -0.00312 -0.07524  0.00117
    H30      Y    -0.62245 -0.00028  0.04797 -0.01435 -0.30139  0.00470
    H30      Z    -0.10949 -0.00011  0.00853 -0.00214 -0.07032  0.00116
    H31      X     0.01108  0.00019  0.13554 -0.00465  0.00336 -0.00039
    H31      Y     0.01059  0.00022  0.13900 -0.00431  0.00479 -0.00060
    H31      Z     0.05098  0.00098  0.67080 -0.01936  0.01953 -0.00246
    H32      X     0.00027  0.00065 -0.04079  0.00569  0.01728 -0.00466
    H32      Y    -0.00181 -0.00041  0.01043 -0.00280 -0.01126  0.00274
    H32      Z    -0.00118  0.00018 -0.02444  0.00227  0.00675 -0.00151
    H33      X    -0.00031 -0.07297  0.00020 -0.00109  0.00048 -0.02460
    H33      Y    -0.00008 -0.02930  0.00002 -0.00125  0.00010 -0.00682
    H33      Z     0.00018  0.02460 -0.00014 -0.00051 -0.00020  0.01350
    H34      X    -0.00005  0.03745  0.00007  0.00331 -0.00006  0.00193
    H34      Y    -0.00003  0.10231  0.00011  0.00794 -0.00021  0.00353
    H34      Z    -0.00044  0.62227  0.00092  0.05225 -0.00121  0.01776
    H35      X    -0.00108  0.01593 -0.00010  0.00412 -0.00168 -0.09343
    H35      Y    -0.00461  0.06603 -0.00036  0.01985 -0.00657 -0.35413
    H35      Z    -0.00020  0.00293  0.00002  0.00169 -0.00062 -0.03099
    H36      X    -0.00043  0.00392 -0.00038 -0.00689  0.01110  0.63938
    H36      Y     0.00047 -0.00382  0.00029  0.00446 -0.00779 -0.44674
    H36      Z    -0.00009  0.00124 -0.00017 -0.00307  0.00453  0.26387
  
  vibration #           97       98       99      100      101      102
                  -------- -------- -------- -------- -------- --------
  frequencies      3164.30  3167.89  3167.97  3174.91  3265.31  3587.52
  intensities         0.10     0.22     1.37     0.01     0.95    90.43
  reduc. mass         0.60     0.57     0.48     0.47     0.58     0.94
  force const         3.53     3.34     2.85     2.78     3.62     7.13
    Rh1      X     0.00001  0.00001  0.00004 -0.00001  0.00003 -0.00000
    Rh1      Y    -0.00001  0.00000 -0.00004 -0.00002  0.00002  0.00001
    Rh1      Z    -0.00000 -0.00001  0.00001 -0.00002 -0.00004 -0.00001
    O2       X     0.00000  0.00003 -0.00004  0.00000 -0.00002  0.00137
    O2       Y     0.00001 -0.00000  0.00004  0.00001 -0.00001  0.00008
    O2       Z    -0.00000  0.00005 -0.00009 -0.00001 -0.00004  0.00034
    C3       X     0.00003 -0.00008  0.00017  0.00000  0.00008  0.00077
    C3       Y    -0.00000  0.00002 -0.00010 -0.00001  0.00018 -0.00003
    C3       Z     0.00005 -0.00018  0.00067  0.00004 -0.00027 -0.00239
    N4       X    -0.00001 -0.00000  0.00008  0.00000 -0.00013 -0.06363
    N4       Y     0.00000 -0.00004  0.00021  0.00000  0.00007  0.00141
    N4       Z     0.00000  0.00002 -0.00012 -0.00000 -0.00039 -0.03189
    C5       X    -0.00004  0.00031 -0.00173  0.00000 -0.00048  0.00040
    C5       Y     0.00003 -0.00067  0.00324  0.00001  0.00068 -0.00037
    C5       Z    -0.00004  0.00031 -0.00150 -0.00001  0.00041  0.00063
    C6       X    -0.00002  0.00017 -0.00096 -0.00001 -0.02204  0.00005
    C6       Y    -0.00101  0.01293 -0.06404 -0.00029  0.01181 -0.00020
    C6       Z    -0.00002 -0.00015  0.00053 -0.00002  0.09089  0.00033
    C7       X     0.00001  0.00007 -0.00022 -0.00001  0.00019  0.00003
    C7       Y     0.00001 -0.00006  0.00023  0.00001 -0.00023  0.00012
    C7       Z     0.00000 -0.00006  0.00028  0.00001  0.00004 -0.00003
    N8       X     0.00000 -0.00004  0.00014  0.00000  0.00005 -0.00002
    N8       Y     0.00000  0.00004 -0.00015 -0.00001 -0.00001 -0.00006
    N8       Z     0.00000  0.00004 -0.00015 -0.00001 -0.00008 -0.00005
    H9       X    -0.00172  0.02183 -0.10816 -0.00047  0.07684 -0.00034
    H9       Y     0.00876 -0.10816  0.53696  0.00258 -0.39764  0.00043
    H9       Z     0.00862 -0.10663  0.52963  0.00254 -0.38054 -0.00030
    H10      X     0.00218 -0.02803  0.13868  0.00054  0.18490 -0.00008
    H10      Y     0.00277 -0.03597  0.17807  0.00072  0.24818 -0.00043
    H10      Z    -0.00814  0.10516 -0.52091 -0.00219 -0.69411  0.00027
    H11      X    -0.00004  0.00011 -0.00058  0.00003  0.00007  0.84971
    H11      Y    -0.00004  0.00019 -0.00099 -0.00001 -0.00010 -0.01393
    H11      Z    -0.00001 -0.00029  0.00129  0.00004 -0.00067  0.44653
    H12      X    -0.00004  0.00024 -0.00076 -0.00004  0.00022 -0.00115
    H12      Y     0.00005 -0.00013  0.00039  0.00002 -0.00010 -0.00031
    H12      Z    -0.00058  0.00166 -0.00590 -0.00044  0.00135  0.01062
    P13      X     0.00001  0.00019  0.00006 -0.00009  0.00000 -0.00002
    P13      Y    -0.00000  0.00013  0.00002 -0.00043 -0.00001  0.00000
    P13      Z    -0.00001 -0.00019 -0.00005  0.00007 -0.00000 -0.00002
    P14      X     0.00018  0.00000  0.00000 -0.00009 -0.00001  0.00002
    P14      Y    -0.00019 -0.00002  0.00003  0.00005 -0.00000 -0.00003
    P14      Z     0.00014  0.00001 -0.00002 -0.00046  0.00004 -0.00001
    C15      X    -0.00023  0.00001 -0.00006  0.01134 -0.00000  0.00000
    C15      Y    -0.00010 -0.00014 -0.00007  0.00627 -0.00001 -0.00000
    C15      Z    -0.00096 -0.00020 -0.00030  0.05789  0.00003  0.00002
    C16      X     0.00003 -0.00001 -0.00007  0.01405  0.00000 -0.00000
    C16      Y    -0.00012  0.00003 -0.00021  0.06138  0.00004  0.00001
    C16      Z    -0.00007  0.00007 -0.00004  0.00749 -0.00001 -0.00000
    H17      X    -0.00178 -0.00274 -0.00137  0.00050 -0.00034  0.00010
    H17      Y     0.00013  0.00029 -0.00013 -0.00010  0.00003 -0.00009
    H17      Z     0.00007 -0.00039 -0.00004 -0.00005  0.00004 -0.00041
    H18      X     0.00003  0.00106 -0.00337  0.00000  0.00149 -0.00027
    H18      Y     0.00065 -0.00174  0.00820  0.00013 -0.00060 -0.00024
    H18      Z     0.00009  0.00037 -0.00050  0.00001 -0.00128 -0.00040
    C19      X    -0.00055  0.06295  0.01261  0.00044  0.00001  0.00000
    C19      Y    -0.00041  0.03732  0.00756  0.00143  0.00004  0.00000
    C19      Z     0.00032 -0.04741 -0.00937  0.00130  0.00003  0.00001
    C20      X     0.00031  0.00171  0.00188  0.00048 -0.00002  0.00001
    C20      Y    -0.00045 -0.00166 -0.00284  0.00061 -0.00023  0.00001
    C20      Z     0.00024  0.00120  0.00151  0.00095  0.00002  0.00004
    C21      X     0.05776  0.00062 -0.00077  0.00077  0.00002  0.00000
    C21      Y    -0.05249 -0.00063  0.00095  0.00029 -0.00004  0.00001
    C21      Z     0.04256  0.00041 -0.00041  0.00112  0.00001 -0.00001
    C22      X     0.00189  0.00015 -0.00036  0.00008 -0.00001 -0.00003
    C22      Y     0.00129  0.00007 -0.00018  0.00046 -0.00000 -0.00000
    C22      Z    -0.00142 -0.00019  0.00042  0.00079  0.00003 -0.00003
    H23      X     0.00082 -0.06763 -0.01372 -0.00370 -0.00007 -0.00000
    H23      Y     0.00392 -0.34057 -0.06905 -0.01242 -0.00040  0.00003
    H23      Z     0.00072 -0.06488 -0.01314 -0.00247 -0.00009 -0.00003
    H24      X    -0.00026 -0.00140 -0.00171 -0.00168  0.00007 -0.00014
    H24      Y    -0.00042 -0.00118 -0.00288 -0.00195 -0.00044 -0.00005
    H24      Z    -0.00134 -0.00443 -0.00862 -0.01077 -0.00018  0.00003
    H25      X     0.05181  0.00058 -0.00069 -0.00094 -0.00010  0.00005
    H25      Y     0.31389  0.00377 -0.00588 -0.00548  0.00001  0.00013
    H25      Z     0.04199  0.00050 -0.00086  0.00037  0.00005  0.00006
    H26      X     0.00069  0.00022 -0.00048 -0.00048 -0.00009  0.00010
    H26      Y     0.00067  0.00015 -0.00032 -0.00128  0.00002 -0.00021
    H26      Z     0.00424  0.00106 -0.00211 -0.00537 -0.00032  0.00030
    H27      X     0.00223  0.00077  0.00087 -0.13530 -0.00002  0.00005
    H27      Y     0.00230  0.00073  0.00085 -0.13556 -0.00000  0.00009
    H27      Z     0.01000  0.00270  0.00369 -0.61754 -0.00021  0.00000
    H28      X     0.00045 -0.00049  0.00068 -0.16273  0.00000  0.00003
    H28      Y     0.00131 -0.00151  0.00243 -0.65904 -0.00019  0.00004
    H28      Z     0.00059 -0.00029  0.00076 -0.15057 -0.00000  0.00007
    H29      X    -0.02511 -0.00192  0.00477  0.00193  0.00015  0.00020
    H29      Y    -0.00638 -0.00058  0.00141  0.00070  0.00002  0.00001
    H29      Z     0.01551  0.00123 -0.00308 -0.00108 -0.00006 -0.00012
    H30      X    -0.00277 -0.00008  0.00020 -0.00099  0.00002  0.00012
    H30      Y    -0.00792 -0.00044  0.00173 -0.00612 -0.00015  0.00018
    H30      Z    -0.00174 -0.00011  0.00032 -0.00035 -0.00005  0.00013
    H31      X    -0.05750 -0.00049  0.00036 -0.00257  0.00002 -0.00009
    H31      Y    -0.08511 -0.00078  0.00076 -0.00252 -0.00001 -0.00017
    H31      Z    -0.32961 -0.00297  0.00270 -0.00879 -0.00021  0.00021
    H32      X    -0.68225 -0.00757  0.00969 -0.00618 -0.00020 -0.00009
    H32      Y     0.39917  0.00440 -0.00557  0.00389  0.00011 -0.00001
    H32      Z    -0.22265 -0.00247  0.00317 -0.00187 -0.00007  0.00000
    H33      X     0.00583 -0.70894 -0.14209 -0.00084 -0.00010 -0.00005
    H33      Y     0.00134 -0.16349 -0.03266  0.00012 -0.00002 -0.00001
    H33      Z    -0.00299  0.35730  0.07156  0.00077  0.00005 -0.00002
    H34      X    -0.00015  0.02689  0.00540 -0.00107  0.00006  0.00006
    H34      Y    -0.00038  0.05671  0.01112 -0.00179 -0.00011 -0.00003
    H34      Z    -0.00146  0.27580  0.05416 -0.01468 -0.00021  0.00004
    H35      X     0.00073  0.00112  0.00496 -0.00040  0.00100  0.00001
    H35      Y     0.00290  0.00572  0.01954 -0.00483  0.00378 -0.00002
    H35      Z     0.00026  0.00032  0.00235 -0.00078  0.00112 -0.00005
    H36      X    -0.00413 -0.02477 -0.02621 -0.00222 -0.00036  0.00015
    H36      Y     0.00287  0.01651  0.01795  0.00175  0.00002 -0.00007
    H36      Z    -0.00171 -0.00918 -0.01062 -0.00078 -0.00027  0.00001
  
  Number of imaginary frequencies:   1
   
  Writing vibrational animation data to 1ZDMPfromJCTCSI_loner1.vib
  Writing vibrational spectrum data to 1ZDMPfromJCTCSI_loner1_vib.spm
  rotational symmetry number:  1

  rotational temperatures (K):      0.021580      0.017501      0.014776
   
    1 vibrational frequencies below  10.0 cm-1 not included in zero-point
  energy or thermochemical analysis.  Set freqcut to change the frequency
  cutoff value.

  vibrational temperatures:
       mode:      2        3        4        5        6        7
  temp. (K):    60.58    93.28   118.57   128.51   167.06   175.75
   
       mode:      8        9       10       11       12       13
  temp. (K):   185.61   220.05   239.88   249.59   268.84   278.08
   
       mode:     14       15       16       17       18       19
  temp. (K):   279.77   295.96   307.75   316.70   328.27   341.47
   
       mode:     20       21       22       23       24       25
  temp. (K):   364.73   395.67   402.33   416.08   464.84   485.14
   
       mode:     26       27       28       29       30       31
  temp. (K):   522.72   549.32   617.95   626.02   692.39   747.91
   
       mode:     32       33       34       35       36       37
  temp. (K):   820.49   832.16   861.72   946.83   958.67  1005.03
   
       mode:     38       39       40       41       42       43
  temp. (K):  1010.34  1031.68  1042.16  1059.31  1069.67  1077.36
   
       mode:     44       45       46       47       48       49
  temp. (K):  1107.38  1192.30  1254.40  1269.96  1283.26  1297.24
   
       mode:     50       51       52       53       54       55
  temp. (K):  1301.17  1345.34  1356.51  1378.84  1418.51  1427.01
   
       mode:     56       57       58       59       60       61
  temp. (K):  1431.08  1467.08  1504.59  1630.14  1654.18  1730.66
   
       mode:     62       63       64       65       66       67
  temp. (K):  1828.73  1894.21  1931.92  1934.68  1953.21  1957.41
   
       mode:     68       69       70       71       72       73
  temp. (K):  1964.28  2013.37  2101.85  2103.48  2110.11  2112.25
   
       mode:     74       75       76       77       78       79
  temp. (K):  2119.63  2120.59  2132.82  2135.29  2152.82  2204.78
   
       mode:     80       81       82       83       84       85
  temp. (K):  2363.00  2426.80  2750.93  2995.86  3332.41  4397.59
   
       mode:     86       87       88       89       90       91
  temp. (K):  4399.10  4406.14  4406.37  4486.69  4519.63  4521.27
   
       mode:     92       93       94       95       96       97
  temp. (K):  4533.40  4534.32  4541.14  4543.77  4551.55  4552.71
   
       mode:     98       99      100      101      102
  temp. (K):  4557.89  4558.00  4567.98  4698.05  5161.63
   
   
  Thermodynamic properties calculated assuming an ideal gas

  In the table below, the units for temperature
  are kelvins, the units for U, H, and G are
  kJ/mol and the units for Cv and S are J/(mol K)

  The zero point energy (ZPE):    746.987 kJ/mol
  is not included in U, H, or G in the table below
  
 
  =============================================================================
  Thermodynamic properties for P =     1.00 atm, calculated at   1 temperatures


  T =   298.15 K, P =     1.00 atm
   
                  U         Cv          S          H          G        ln(Q)
              =========  =========  =========  =========  =========  =========
  trans.          3.718     12.472    181.769      6.197    -47.997   19.36178
  rot.            3.718     12.472    138.576      3.718    -37.598   15.16687
  vib.           47.739    303.636    295.243     47.739    -40.287   16.25175
  elec.           0.000      0.000      0.000      0.000      0.000    0.00000
  ----------------------------------------------------------------------------
  total          55.176    328.579    615.589     57.655   -125.883   50.78040
   
   Total internal energy, Utot(SCFE + ZPE + U):   -1369.577407 hartrees
              Total enthalpy, Htot (Utot + pV):   -1369.576463 hartrees
    Total Gibbs free energy, Gtot (Htot - T*S):   -1369.646369 hartrees
   
  Peak memory usage:   1427 Mb
  
  end of program freq
   
 Time(freq)  user:        1.2  user+sys:        1.2  wallclock:        1.9

 Total cpu seconds     user:    4420.152   user+sys:    4420.152
  
 Total elapsed time:    1728 seconds

Job 1ZDMPfromJCTCSI_loner1 completed on seskscpn101.prim.scp at Wed Oct 18 10:49:51 2023
