Job 2DMPEConformation1fromJCTCSI_isomer1 started on seskscpn104.prim.scp at Wed Oct 18 10:21:03 2023
jobid: seskscpn324-0-652fb165

  +--------------------------------------------------------------------+
  |  Jaguar version 10.6, release  12                                  |
  |                                                                    |
  |  Copyright Schrodinger, Inc.                                       |
  |  All Rights Reserved.                                              |
  |                                                                    |
  |  The following have contributed to Jaguar (listed alphabetically): |
  |  Mike Beachy, Art Bochevarov, Dale Braden, Yixiang Cao,            |
  |  Alan Chien, Chris Cortis, Rich Friesner, Bill Goddard,            |
  |  Hod Greeley, Tom Hughes, Leif Jacobson, Jean-Marc Langlois,       |
  |  Daniel Levine, Daniel Mainz, Rob Murphy, Dean Philipp,            |
  |  Tom Pollard, Murco Ringnalda, Mark Watson, Haoyu Yu.              |
  |                                                                    |
  |  Use of this program should be acknowledged in publications as:    |
  |                                                                    |
  |  Jaguar, version 10.6, Schrodinger, Inc., New York, NY, 2019.      |
  |                                                                    |
  |  A. D. Bochevarov, E. Harder, T. F. Hughes, J. R. Greenwood,       |
  |  D. A. Braden, D. M. Philipp, D. Rinaldo, M. D. Halls,             |
  |  J. Zhang, R. A. Friesner, "Jaguar: A High-Performance Quantum     |
  |  Chemistry Software Program with Strengths in Life and Materials   |
  |  Sciences", Int. J. Quantum Chem., 2013, 113(18), 2110-2142.       |
  +--------------------------------------------------------------------+
  
  start of program pre
  
  Job name: 2DMPEConformation1fromJCTCSI_isomer1
  Executables used: /opt/scp/software/schrodinger/2019-4/jaguar-v10.6/bin/Linux-x86_64
  Temporary files : /scratch/kzdq760/2DMPEConformation1fromJCTCSI_isomer1#seskscpn324-0-652fb165
  Maestro file (input):  2DMPEConformation1fromJCTCSI_isomer1.mae
  Maestro file (output): 2DMPEConformation1fromJCTCSI_isomer1.01.mae
  
 Contents of input file: &gen section only
 ----------------Contents start----------------
&gen
isymm=0
basis=LACVP**
gdftgrad=-13
gdftmed=-13
icanorb=1
molchg=1
gdftfine=-13
dftname=B3LYP
eunit=2
ifreq=1
ncanorb=350
iacc=1
&
 -----------------Contents end-----------------
 
  basis set:             lacvp**                         
  net molecular charge:    1
  multiplicity:            1
  
  keygrid settings 
    wispc.....   7.500E-01
    ldens.....   0
    denspc....   7.500E-01
  
   grid     daf set  nls  grid set  Q type
  ------    -------  ---  --------  ------
  coarse       1      1       1        1
  medium       2      2       2        1
  fine         3      2       3        0
  ultrafine    4      2       4        1
  charge       0      1       0        1
  gradient     5      2       4        1
  density      0      1       0        0
  DFT-fine     0      1     -13        0
  DFT-med.     0      1     -13        0
  DFT-grad     0      1     -13        0
  DFT-der2     0      1      -8        0
  DFT-cphf     0      1      -9        0
  LMP2-enrg    4      2       4        1
  LMP2-grad    5      2       2        1
  DFT-cphf2    0      1     -15        0
  PBF-dens     0      1       0        0
  plotting     0      1       0        0
  Rel-grad     0      1     -17        0
  
  idftgrdm  100
  ndftgrdm   50    0    0
  idftgrdf  111
  ndftgrdf   85    0    0
  idftgrdg  111
  ndftgrdg   80    3    0
  idftgrdu  433
  ndftgrdu  105    0    0
  idftgrdd  433
  ndftgrdd  105    0    0
  idftgrdc  433
  ndftgrdc   26    0    0
  idftgrdp  433
  ndftgrdp   18    0    0
  
  Using up to   4 threads per process
  
  This run will use ECP on 1 atom
  number of basis functions....          350
  
 Input geometry:
                                   angstroms
  atom               x                 y                 z
  Rh1           0.0000000000      0.0000000000      0.0000000000 
  O2            0.0000000000      0.0000000000      2.2203200000 
  C3            1.1357300000      0.0000000000      2.7315500000 
  N4            2.2645600000      0.0858700000      2.0100700000 
  C5            2.2080900000      0.3512900000      0.5935400000 
  C6            1.6525600000      1.5913900000      0.1677300000 
  C7            3.0514400000     -0.4377700000     -0.2424400000 
  N8            3.7213200000     -1.0903800000     -0.9399900000 
  H9            1.4929800000      2.3501700000      0.9278400000 
  H10           1.9258700000      1.9706100000     -0.8098200000 
  H11           3.1609800000      0.0859700000      2.4846700000 
  H12           1.2617900000     -0.0771400000      3.8172700000 
  P13          -0.1788600000     -0.1460800000     -2.2731800000 
  P14          -0.3222500000     -2.3571500000      0.0258000000 
  C15          -0.1631500000     -1.9515700000     -2.7244000000 
  C16          -0.9161200000     -2.7914300000     -1.6813400000 
  H17          -1.5591100000      0.0791600000     -0.1053500000 
  H18          -0.0254600000      1.6309600000     -0.1107200000 
  C19          -1.7113700000      0.5528200000     -3.0008400000 
  C20           1.1751000000      0.5937000000     -3.2691700000 
  C21          -1.6116000000     -2.9524700000      1.1867600000 
  C22           1.1283000000     -3.4476400000      0.3320700000 
  H23          -1.7697800000      1.6177700000     -2.7625500000 
  H24           1.0321300000      0.3432000000     -4.3250900000 
  H25          -1.7687300000     -4.0304200000      1.0862100000 
  H26           1.4740100000     -3.3070100000      1.3599400000 
  H27           1.9495400000     -3.1862200000     -0.3402300000 
  H28           0.8596800000     -4.4992800000      0.1930200000 
  H29          -1.3009900000     -2.7270200000      2.2100600000 
  H30          -2.5481700000     -2.4241500000      0.9934700000 
  H31          -2.5862100000      0.0613000000     -2.5695700000 
  H32          -1.7146700000      0.4233500000     -4.0874300000 
  H33           1.1637100000      1.6825000000     -3.1697800000 
  H34           2.1431700000      0.2080000000     -2.9403000000 
  H35          -0.5859400000     -2.0819400000     -3.7268200000 
  H36           0.8903200000     -2.2501700000     -2.7740100000 
  H37          -0.7893700000     -3.8621000000     -1.8732000000 
  H38          -1.9906400000     -2.5794000000     -1.7127100000 
   
  principal moments of inertia:
        amu*angstrom^2:     1137.17974     1382.80851     1656.40049
                g*cm^2: 1.88833115E-37 2.29620727E-37 2.75051738E-37
   
  rotational constants:
               cm^(-1):      0.01482407      0.01219086      0.01017727
                   GHz:      0.44441436      0.36547288      0.30510677
   
  Molecular weight:     351.03 amu
   
  Stoichiometry: RhC10P2N2H22O
  Molecular Point Group: C1      
  Point Group used: C1 (symmetry turned off)
  
  nuclear repulsion energy.......    1747.381917454 hartrees
  
  Detected an organometallic with only one TM atom. 
  
  Oxidation state on metal       1 is     3
  Formal multiplet on metal      1 is     1
  Formal charge on ligand        4 is    -1
  Formal multiplet on ligand     4 is     1
  Formal charge on ligand        5 is    -1
  Formal multiplet on ligand     5 is     1
  
 
  Will use High-Quality Initial guess for organometallics
       including d-d repulsion (iguess=30)
 
 Non-default options chosen:
   SCF calculation type: DFT(b3lyp)                  
   DFT=Becke_3_Parameter/HF+Slater+Becke88+VWN+LYP (B3LYP)
   Vibrational frequencies and related properties will be computed
      from analytic second derivatives
   IR intensities will be computed
   Thermochemical properties will be computed
   Thermochemical data will be printed in Joules
   Molecular symmetry not used
   Highest accuracy cutoffs used in SCF
  
 Temporary integer options set:
     21= -1  73=  2
  
   Fixing number of canonical orbitals to remain constant.
   Number of canonical orbitals to use:   350
  
  Peak memory usage:   1467 Mb
  
  end of program pre
   
 Time(pre)  user:        2.1  user+sys:        2.1  wallclock:        1.3
  
  start of program onee
  
  smallest eigenvalue of S:    1.077E-03
  Set cut 20/10 to   1.075827590425165E-003
  number of canonical orbitals.....          350
  Peak memory usage:   1504 Mb
  
  end of program onee
   
 Time(onee)  user:        1.8  user+sys:        1.8  wallclock:        0.5
  
  start of program hfig
  
  initial wavefunction generated automatically from atomic wavefunctions
  Only one state below 0.010000
  Skip d-d repulsion considerations 
 
  Irreducible     Total no   No of occupied orbitals 
  representation  orbitals   Shell_1  Shell_2    ...
  No Symm          350         75
  ------------------------
  Orbital occupation/shell    1.000
 
  Peak memory usage:   1424 Mb
  
  end of program hfig
   
 Time(hfig)  user:        1.0  user+sys:        1.0  wallclock:        0.4
  
  start of program probe
  
  Peak memory usage:   1422 Mb
  
  end of program probe
   
 Time(probe)  user:        0.7  user+sys:        0.7  wallclock:        0.2
  
  start of program grid
  
   grid     grid set  grid #  grid sym
  ------    --------  ------  --------
  coarse        0        0        1
  medium        2        1        1
  fine          0        0        1
  ultrafine     4        2        1
  charge        0        0        1
  gradient      4        2        1
  density       0        0        1
  DFT-fine    -13        3        1
  DFT-med.    -13        3        1
  DFT-grad    -13        3        1
  DFT-der2     -8        4        1
  DFT-cphf     -9        5        1
  LMP2-enrg     4        2        1
  LMP2-grad     2        1        1
  DFT-cphf2   -15        6        1
  PBF-dens      0        0        1
  plotting      0        0        1
  Rel-grad    -17        0        1
  
  number of gridpoints: 
     atom       Rh1       O2       C3       N4       C5       C6       C7
  grid # 1      299      116       83      102       93       82      100
  grid # 2      233      485      297      337      358      267      390
  grid # 3    35544    23820    15816    16030    15816    15816    15816
  grid # 4    32864    23252    13988    14170    13988    13988    13988
  grid # 5     1144      774      748      756      748      748      748
  grid # 6     2168      416      394      406      394      394      394
   
  number of gridpoints: 
     atom        N8       H9      H10      H11      H12      P13      P14
  grid # 1      119      112      108      116      117      607      610
  grid # 2      495      453      443      450      466      424      431
  grid # 3    16030    17074    17074    17074    17074    24032    24032
  grid # 4    14170    15058    15058    15058    15058    23016    23016
  grid # 5      756      786      786      786      786      722      722
  grid # 6      406      420      420      420      420      370      370
   
  number of gridpoints: 
     atom       C15      C16      H17      H18      C19      C20      C21
  grid # 1       80       81      105      103       76       74       76
  grid # 2      299      299      460      449      255      258      256
  grid # 3    15816    15816    17074    17074    15816    15816    15816
  grid # 4    13988    13988    15058    15058    13988    13988    13988
  grid # 5      748      748      786      786      748      748      748
  grid # 6      394      394      420      420      394      394      394
   
  number of gridpoints: 
     atom       C22      H23      H24      H25      H26      H27      H28
  grid # 1       76      104      106      106      106      101      105
  grid # 2      254      453      454      457      454      441      454
  grid # 3    15816    17074    17074    17074    17074    17074    17074
  grid # 4    13988    15058    15058    15058    15058    15058    15058
  grid # 5      748      786      786      786      786      786      786
  grid # 6      394      420      420      420      420      420      420
   
  number of gridpoints: 
     atom       H29      H30      H31      H32      H33      H34      H35
  grid # 1      104      103      103      106      104      104      107
  grid # 2      450      453      449      454      447      443      452
  grid # 3    17074    17074    17074    17074    17074    17074    17074
  grid # 4    15058    15058    15058    15058    15058    15058    15058
  grid # 5      786      786      786      786      786      786      786
  grid # 6      420      420      420      420      420      420      420
   
  number of gridpoints: 
     atom       H36      H37      H38    total
  grid # 1      103      107      105     5009
  grid # 2      445      452      446    15263
  grid # 3    17074    17074    17074   673276
  grid # 4    15058    15058    15058   601644
  grid # 5      786      786      786    29646
  grid # 6      420      420      420    17316
   
  Peak memory usage:   1451 Mb
  
  end of program grid
   
 Time(grid)  user:       29.7  user+sys:       29.7  wallclock:        7.9
  
  start of program rwr
  
  Peak memory usage:   1420 Mb
  
  end of program rwr
   
 Time(rwr)  user:        9.5  user+sys:        9.5  wallclock:        3.5
  
  start of program scf
  
 number of electrons..........        150
 number of alpha electrons....         75
 number of beta electrons.....         75
 number of orbitals, total....        350
 number of doubly-occ'd orbs..         75
 number of open shell orbs....          0
 number of occupied orbitals..         75
 number of virtual orbitals...        275
 number of hamiltonians.......          1
 number of shells.............          1
 SCF type: DFT=Becke_3_Parameter/HF+Slater+Becke88+VWN+LYP (B3LYP)
 Energy computed with NOPS off.
 Convergence Criterion:
    Energy (econv):       1.00E-05
    RMS density (dconv):  5.00E-06
  
       i  u  d  i  g                   
       t  p  i  c  r                                 RMS    maximum
       e  d  i  u  i                       energy  density   DIIS  
       r  t  s  t  d       total energy    change  change    error 
  
etot    1  N  N  1  U   -1367.39070136557           4.7E-03  1.0E-01
etot    2  N  Y  1  U   -1370.05838577474  2.7E+00  4.6E-03  5.5E-02
etot    3  N  Y  1  U   -1370.40863049721  3.5E-01  2.8E-03  8.8E-02
etot    4  N  Y  1  U   -1370.91074287782  5.0E-01  1.7E-03  4.3E-02
etot    5  N  Y  1  U   -1371.07759833705  1.7E-01  7.2E-04  1.8E-02
etot    6  N  Y  1  U   -1371.11559318289  3.8E-02  1.9E-04  4.5E-03
etot    7  N  Y  1  U   -1371.11811389643  2.5E-03  7.6E-05  3.3E-03
etot    8  N  Y  1  U   -1371.11898040498  8.7E-04  2.4E-05  6.2E-04
etot    9  N  Y  1  U   -1371.11902940507  4.9E-05  8.7E-06  1.3E-04
etot   10  N  Y  1  U   -1371.11903382261  4.4E-06  4.0E-06  7.7E-05
etot   11  N  N  1  U   -1371.11903484412  1.0E-06  0.0E+00  0.0E+00
  
  
 Energy components, in hartrees:
   (A)  Nuclear repulsion............    1747.38191745437
   (E)  Total one-electron terms.....   -5377.95642004784
   (I)  Total two-electron terms.....    2259.45546774935
   (J)    Coulomb....................    2401.98573646710
   (K)    Exchange+Correlation.......    -142.53026871775
   (L)  Electronic energy............   -3118.50095229849  (E+I)
   (N)  Total energy.................   -1371.11903484412  (A+L)
   (O)  Gas phase energy.............   -1371.11903484412
  
 SCFE: SCF energy: DFT(b3lyp)     -1371.11903484412 hartrees   iterations:  11
  
 
 HOMO energy:    -0.35457
 LUMO energy:    -0.18149
 
  Orbital energies (hartrees): 
   -77.25284   -77.23433   -19.29824   -14.52836   -14.45164   -10.44270
   -10.39443   -10.36935   -10.34727   -10.33453   -10.33159   -10.31905
   -10.31566   -10.31066   -10.30973    -6.73022    -6.71327    -4.89169
    -4.89146    -4.89010    -4.87491    -4.87455    -4.87244    -3.27384
    -2.08096    -2.07401    -2.06520    -1.20318    -1.09297    -1.01901
    -0.94082    -0.93233    -0.89774    -0.86634    -0.83309    -0.82506
    -0.81691    -0.77566    -0.75270    -0.72698    -0.70244    -0.66864
    -0.65935    -0.62471    -0.60030    -0.59099    -0.58954    -0.58116
    -0.56673    -0.56518    -0.55756    -0.55496    -0.55212    -0.54420
    -0.54128    -0.53741    -0.53361    -0.52872    -0.51309    -0.50656
    -0.48626    -0.48412    -0.47886    -0.47597    -0.47111    -0.46485
    -0.45889    -0.45692    -0.44498    -0.42592    -0.42196    -0.41419
    -0.40646    -0.39644    -0.35457    -0.18149    -0.16751    -0.14061
    -0.11952    -0.09985    -0.09383    -0.08344    -0.07332    -0.06871
    -0.06510
 
  Peak memory usage:   2061 Mb
  
  end of program scf
   
 Time(scf)  user:      214.9  user+sys:      214.9  wallclock:       60.6
  
  start of program cutabab2
  
  Peak memory usage:   1559 Mb
  
  end of program cutabab2
   
 Time(cutabab2)  user:        0.8  user+sys:        0.8  wallclock:        0.5
  
  start of program der2a
  
  Peak memory usage:   1802 Mb
  
  end of program der2a
   
 Time(der2a)  user:       13.8  user+sys:       13.8  wallclock:        3.8
  
  start of program der2b
  
  Peak memory usage:   2198 Mb
  
  end of program der2b
   
 Time(der2b)  user:      856.8  user+sys:      856.8  wallclock:      215.5
  
  start of program der2nda
  
 
  Peak memory usage:    974 Mb
  
  end of program der2nda
   
 Time(der2nda)  user:        6.8  user+sys:        6.8  wallclock:        7.0
  
  start of program der2ndb
  
  Peak memory usage:   1864 Mb
  
  end of program der2ndb
   
 Time(der2ndb)  user:     1209.0  user+sys:     1209.0  wallclock:      309.7
  
  start of program rwr
  
  Peak memory usage:   1419 Mb
  
  end of program rwr
   
 Time(rwr)  user:        9.6  user+sys:        9.6  wallclock:        3.6
  
  start of program cphfa
  
       5  vectors produced in CPHF
  
     v    i  j  k  i  g
     e    t  c  c  c  r
     c    e  o  o  u  i
     t    r  r  r  t  d       RMS  
  
     1    1  5  2  6  M     7.2E-03
     1    2  5  2  6  M     6.5E-04
     1    3  0  0  6  M     3.3E-04
     1    4  0  0  6  M     1.4E-04
     1    5  0  0  6  M     5.2E-05
     1    6  0  0  6  M     2.2E-05
  
     v    i  j  k  i  g
     e    t  c  c  c  r
     c    e  o  o  u  i
     t    r  r  r  t  d       RMS  
  
     2    1  5  2  6  M     7.0E-03
     2    2  5  2  6  M     7.8E-04
     2    3  0  0  6  M     3.1E-04
     2    4  0  0  6  M     1.3E-04
     2    5  0  0  6  M     6.7E-05
     2    6  0  0  6  M     2.8E-05
  
     v    i  j  k  i  g
     e    t  c  c  c  r
     c    e  o  o  u  i
     t    r  r  r  t  d       RMS  
  
     3    1  5  2  6  M     7.5E-03
     3    2  5  2  6  M     6.1E-04
     3    3  0  0  6  M     3.1E-04
     3    4  0  0  6  M     1.2E-04
     3    5  0  0  6  M     7.1E-05
     3    6  0  0  6  M     2.4E-05
  
     v    i  j  k  i  g
     e    t  c  c  c  r
     c    e  o  o  u  i
     t    r  r  r  t  d       RMS  
  
     4    1  5  2  6  M     7.2E-03
     4    2  5  2  6  M     5.1E-04
     4    3  0  0  6  M     2.3E-04
     4    4  0  0  6  M     9.0E-05
     4    5  0  0  6  M     5.0E-05
  
     v    i  j  k  i  g
     e    t  c  c  c  r
     c    e  o  o  u  i
     t    r  r  r  t  d       RMS  
  
     5    1  5  2  6  M     7.5E-03
     5    2  5  2  6  M     4.6E-04
     5    3  0  0  6  M     2.5E-04
     5    4  0  0  6  M     1.5E-04
     5    5  0  0  6  M     4.8E-05
  
  
  Atomic Polar Tensors (au): Total
  =========================
  
  APT for atom Rh1     
  --------------------------------------
       -0.5774       0.0790      -0.0392
        0.2813      -0.4544       0.1061
        0.0306       0.0522      -0.1748
  --------------------------------------
  
  APT for atom O2      
  --------------------------------------
       -0.8308      -0.0467      -0.2708
       -0.0244      -0.1434      -0.0539
       -0.3561      -0.0027      -1.0168
  --------------------------------------
  
  APT for atom C3      
  --------------------------------------
        1.3364       0.0421       0.2226
        0.0996       0.2062      -0.0089
       -0.0551      -0.0065       0.6498
  --------------------------------------
  
  APT for atom N4      
  --------------------------------------
       -0.6644       0.0470       0.0300
        0.0548      -0.3322      -0.0167
        0.3130       0.0113      -0.3727
  --------------------------------------
  
  APT for atom C5      
  --------------------------------------
       -0.4285      -0.2281      -0.0565
        0.3266       0.3256       0.0200
       -0.0305      -0.0557       0.4760
  --------------------------------------
  
  APT for atom C6      
  --------------------------------------
        0.7316       0.2718       0.2045
       -0.1610       0.0746       0.0153
        0.2080      -0.0147       0.0703
  --------------------------------------
  
  APT for atom C7      
  --------------------------------------
        0.5287      -0.0325      -0.0702
       -0.2766       0.0502       0.0467
       -0.3636       0.0477      -0.0427
  --------------------------------------
  
  APT for atom N8      
  --------------------------------------
       -0.4857      -0.0183      -0.0001
        0.1448      -0.2566       0.0167
        0.1624       0.0167      -0.2541
  --------------------------------------
  
  APT for atom H9      
  --------------------------------------
       -0.0145      -0.0969      -0.0130
       -0.0280       0.0620      -0.0165
       -0.0026      -0.0215       0.0354
  --------------------------------------
  
  APT for atom H10     
  --------------------------------------
        0.0390      -0.0390      -0.0102
       -0.0303       0.0604      -0.0104
        0.0091      -0.0013       0.0135
  --------------------------------------
  
  APT for atom H11     
  --------------------------------------
        0.2827       0.0057       0.0589
       -0.0485       0.2897       0.0251
        0.0090       0.0227       0.1367
  --------------------------------------
  
  APT for atom H12     
  --------------------------------------
        0.0568      -0.0039      -0.1124
       -0.0108       0.0914       0.0194
       -0.0435      -0.0003      -0.0508
  --------------------------------------
  
  APT for atom P13     
  --------------------------------------
        0.9387      -0.0703       0.1788
        0.0396       0.9932      -0.0916
        0.2420      -0.2019       1.3912
  --------------------------------------
  
  APT for atom P14     
  --------------------------------------
        1.0453       0.1271       0.0555
        0.1801       1.1535      -0.1945
        0.0530       0.0249       0.9150
  --------------------------------------
  
  APT for atom C15     
  --------------------------------------
       -0.1466       0.0243      -0.1267
        0.0281      -0.0571      -0.0085
        0.0149       0.0355      -0.3219
  --------------------------------------
  
  APT for atom C16     
  --------------------------------------
       -0.1047       0.0473       0.0128
       -0.1388      -0.2860       0.0451
       -0.0009      -0.0151      -0.0813
  --------------------------------------
  
  APT for atom H17     
  --------------------------------------
       -0.3619      -0.0206      -0.0557
       -0.0076       0.1313       0.0099
        0.0286      -0.0153       0.1132
  --------------------------------------
  
  APT for atom H18     
  --------------------------------------
       -0.0514       0.0374      -0.0059
       -0.2150      -0.2829      -0.0237
        0.0246       0.0097       0.1348
  --------------------------------------
  
  APT for atom C19     
  --------------------------------------
       -0.2130       0.0148       0.0250
       -0.0130      -0.2113      -0.0045
       -0.1247       0.0403      -0.3222
  --------------------------------------
  
  APT for atom C20     
  --------------------------------------
       -0.2530       0.0190      -0.0851
       -0.0079      -0.1929      -0.0203
       -0.0239       0.0899      -0.4353
  --------------------------------------
  
  APT for atom C21     
  --------------------------------------
       -0.1965       0.0243       0.0073
       -0.1278      -0.3447       0.1000
       -0.0079      -0.0143      -0.2084
  --------------------------------------
  
  APT for atom C22     
  --------------------------------------
       -0.2833      -0.1256       0.0208
       -0.0820      -0.4068       0.0536
        0.0120      -0.0210      -0.2039
  --------------------------------------
  
  APT for atom H23     
  --------------------------------------
        0.0843       0.0120      -0.0052
       -0.0068      -0.0053      -0.0277
       -0.0062      -0.0148       0.0854
  --------------------------------------
  
  APT for atom H24     
  --------------------------------------
        0.0837      -0.0294       0.0542
       -0.0145       0.0788       0.0210
       -0.0182      -0.0145      -0.0442
  --------------------------------------
  
  APT for atom H25     
  --------------------------------------
        0.0354      -0.0841       0.0450
       -0.0311      -0.0454      -0.0014
        0.0481       0.0423       0.0548
  --------------------------------------
  
  APT for atom H26     
  --------------------------------------
        0.0496       0.0043      -0.0559
        0.0155       0.0824      -0.0202
       -0.0350      -0.0175      -0.0248
  --------------------------------------
  
  APT for atom H27     
  --------------------------------------
        0.0190      -0.0090       0.0502
        0.0127       0.1177       0.0084
        0.0291       0.0167       0.0476
  --------------------------------------
  
  APT for atom H28     
  --------------------------------------
        0.0949       0.0724      -0.0241
       -0.0342      -0.0886      -0.0050
       -0.0063       0.0064       0.0904
  --------------------------------------
  
  APT for atom H29     
  --------------------------------------
        0.0719      -0.0114      -0.0138
       -0.0019       0.0973      -0.0097
       -0.0356      -0.0218      -0.0156
  --------------------------------------
  
  APT for atom H30     
  --------------------------------------
        0.0105       0.0527      -0.0164
        0.0454       0.0639       0.0226
       -0.0163       0.0075       0.0812
  --------------------------------------
  
  APT for atom H31     
  --------------------------------------
        0.0263      -0.0450       0.0459
       -0.0371       0.0678       0.0187
        0.0338       0.0279       0.0649
  --------------------------------------
  
  APT for atom H32     
  --------------------------------------
        0.0323       0.0281      -0.0728
        0.0312       0.0817       0.0073
       -0.0248      -0.0090      -0.0596
  --------------------------------------
  
  APT for atom H33     
  --------------------------------------
        0.0689      -0.0320       0.0226
       -0.0063      -0.0304      -0.0169
        0.0150      -0.0273       0.0933
  --------------------------------------
  
  APT for atom H34     
  --------------------------------------
        0.0078       0.0274      -0.0330
        0.0044       0.0634       0.0028
       -0.0021      -0.0004       0.1239
  --------------------------------------
  
  APT for atom H35     
  --------------------------------------
        0.0717      -0.0231      -0.0090
       -0.0410       0.0346      -0.0413
       -0.0313       0.0117      -0.0732
  --------------------------------------
  
  APT for atom H36     
  --------------------------------------
       -0.0290       0.0026       0.0247
        0.0363       0.0089       0.0266
       -0.0116       0.0240       0.0897
  --------------------------------------
  
  APT for atom H37     
  --------------------------------------
        0.0683      -0.0343       0.0111
       -0.0119      -0.0688      -0.0040
       -0.0129      -0.0327       0.0203
  --------------------------------------
  
  APT for atom H38     
  --------------------------------------
       -0.0430       0.0114       0.0062
        0.0556       0.0716       0.0103
       -0.0247       0.0209       0.0145
  --------------------------------------
  
  Peak memory usage:   1910 Mb
  
  end of program cphfa
   
 Time(cphfa)  user:     2981.1  user+sys:     2981.1  wallclock:     1041.5
  
  start of program freq
  
   
  Number of frequencies: 108
  harmonic frequencies in cm**-1, reduced masses in amu,
  force constants in mDyne/A, and
  normal modes in cartesian coordinates:         108
  IR intensities in km/mol
  
  vibration #            1        2        3        4        5        6
                  -------- -------- -------- -------- -------- --------
  frequencies      -690.79    31.61    67.08    80.83    92.54   118.02
  intensities        18.89     0.27     3.57     6.28     4.31     2.53
  reduc. mass         0.77     0.84     2.44     3.20     1.53     1.48
  force const         0.22     0.00     0.01     0.01     0.01     0.01
    Rh1      X    -0.00324  0.00075  0.00817  0.01470  0.00209 -0.01602
    Rh1      Y     0.01557 -0.00741  0.00347 -0.01302  0.01943  0.00858
    Rh1      Z    -0.00218 -0.00450 -0.00515 -0.00651 -0.01826  0.01333
    O2       X     0.00149 -0.01845 -0.01722  0.01441 -0.03868  0.00376
    O2       Y     0.00132  0.00343  0.04547 -0.01263 -0.01778  0.10823
    O2       Z     0.00215 -0.00544 -0.00817 -0.00973 -0.01686  0.00616
    C3       X    -0.00370 -0.02378 -0.02598  0.01018 -0.04477  0.00913
    C3       Y    -0.00007  0.01976  0.05681  0.01196 -0.08580  0.04953
    C3       Z     0.00072  0.00629  0.00960  0.00018 -0.00291 -0.00470
    N4       X     0.00289 -0.01760 -0.01414  0.01387 -0.03358  0.00769
    N4       Y    -0.00597  0.02828  0.03291  0.03254 -0.10974 -0.05227
    N4       Z     0.00433  0.01733  0.02444  0.01038  0.01218 -0.01956
    C5       X     0.03166 -0.00577  0.00909  0.02512 -0.00408  0.00490
    C5       Y     0.01705  0.01699 -0.01176  0.01541 -0.05096 -0.05073
    C5       Z     0.00945  0.01465  0.01499  0.00663  0.02050 -0.01916
    C6       X     0.06247 -0.01317  0.03898  0.00850  0.03090  0.02133
    C6       Y    -0.04926  0.00838 -0.01449  0.00042 -0.02290 -0.03739
    C6       Z     0.00973  0.00037 -0.02893 -0.01010  0.05130 -0.01055
    C7       X     0.00398  0.01542 -0.01006  0.07947  0.02582  0.04038
    C7       Y    -0.01126  0.02183 -0.07083  0.03963 -0.01367 -0.01614
    C7       Z    -0.00061  0.03158  0.05154  0.03835  0.01449 -0.01660
    N8       X     0.00233  0.03570 -0.02442  0.14437  0.05860  0.08245
    N8       Y    -0.00313  0.02626 -0.13314  0.06312  0.02261  0.03190
    N8       Z    -0.00297  0.04712  0.09592  0.07913  0.01242 -0.02113
    H9       X    -0.20248 -0.02676  0.05708 -0.00941  0.02397  0.03919
    H9       Y    -0.07914  0.01310  0.01489  0.00734 -0.04633 -0.03788
    H9       Z    -0.02644 -0.00721 -0.05442 -0.02086  0.07332 -0.00600
    H10      X    -0.10492 -0.00874  0.04902  0.00636  0.06832  0.03169
    H10      Y    -0.06244  0.00263 -0.05405 -0.00858  0.00481 -0.03609
    H10      Z    -0.03620 -0.00066 -0.04147 -0.01421  0.07206 -0.00706
    H11      X     0.00120 -0.02221 -0.02107  0.01046 -0.03933  0.01219
    H11      Y    -0.00511  0.03952  0.03774  0.04079 -0.15712 -0.08408
    H11      Z     0.00622  0.02602  0.03741  0.01677  0.02321 -0.02796
    H12      X     0.00050 -0.03407 -0.04298  0.00183 -0.06024  0.01402
    H12      Y    -0.00401  0.02798  0.08784  0.01800 -0.13133  0.07685
    H12      Z     0.00036  0.00806  0.01381  0.00152 -0.00437 -0.00347
    P13      X     0.00179 -0.00191 -0.02542 -0.02452 -0.01807  0.00674
    P13      Y     0.00113 -0.00658  0.01280 -0.00364 -0.00120 -0.00762
    P13      Z    -0.00026 -0.00492 -0.00239 -0.00279 -0.01492  0.01025
    P14      X     0.00735  0.01034  0.02604 -0.02448  0.01311 -0.03936
    P14      Y    -0.00956 -0.00823 -0.00280 -0.00911  0.03002  0.00141
    P14      Z     0.00230 -0.00584 -0.01465 -0.01041  0.01035  0.00454
    C15      X    -0.00046 -0.09714  0.00048 -0.02262 -0.01296  0.02620
    C15      Y     0.00002 -0.00780  0.01750 -0.00008 -0.00928 -0.00671
    C15      Z     0.00079 -0.00966 -0.01537 -0.01440  0.00837  0.01742
    C16      X     0.00005 -0.08061  0.01770 -0.01933  0.00169 -0.02453
    C16      Y    -0.00169  0.01554  0.00336 -0.00372 -0.00388  0.01531
    C16      Z     0.00037  0.02075 -0.01421 -0.01534  0.02488 -0.00248
    H17      X     0.00167  0.00029  0.01028  0.01565  0.00393 -0.01544
    H17      Y    -0.14339 -0.02250  0.01250 -0.00531  0.04560  0.04774
    H17      Z     0.02876 -0.01200 -0.00020  0.01129 -0.02673  0.01941
    H18      X    -0.86083 -0.01355  0.04967 -0.00125  0.04409  0.03472
    H18      Y    -0.14628 -0.00841  0.00708 -0.01771  0.02333  0.00608
    H18      Z    -0.11540 -0.00768 -0.01187 -0.00780 -0.01445 -0.01518
    C19      X     0.00030  0.03720 -0.05444 -0.04967 -0.03556  0.00665
    C19      Y    -0.00006  0.07717 -0.01484 -0.01642 -0.03190 -0.04378
    C19      Z     0.00206 -0.00685  0.03092  0.03646 -0.00905 -0.02295
    C20      X     0.00004  0.03999 -0.05825 -0.05144 -0.03527  0.01371
    C20      Y     0.00023 -0.08006  0.05088  0.01628 -0.00161  0.01089
    C20      Z    -0.00083 -0.00309 -0.01887 -0.02352 -0.03721  0.03422
    C21      X    -0.00009  0.07116  0.04156 -0.06155  0.04618 -0.00848
    C21      Y    -0.00359 -0.02320 -0.03251  0.02962  0.04385 -0.10793
    C21      Z    -0.00052  0.05385 -0.01246 -0.03080  0.05276 -0.01592
    C22      X    -0.00086  0.02693  0.03574 -0.05586  0.03867  0.00234
    C22      Y    -0.01387 -0.01197  0.00351 -0.04340  0.06570  0.04043
    C22      Z    -0.00040 -0.09765 -0.03903  0.01639  0.01417 -0.05285
    H23      X     0.00174  0.09255 -0.07663 -0.05960 -0.04930 -0.02141
    H23      Y     0.00000  0.07939 -0.01918 -0.01977 -0.02933 -0.04235
    H23      Z     0.00063 -0.00313  0.04463  0.04877 -0.02418 -0.03679
    H24      X     0.00045  0.03608 -0.06670 -0.06132 -0.04581  0.03540
    H24      Y    -0.00192 -0.08439  0.05675  0.01621 -0.00370  0.01097
    H24      Z    -0.00035 -0.00158 -0.01904 -0.02213 -0.03525  0.03135
    H25      X    -0.00737  0.06445  0.04675 -0.08770  0.06824  0.00861
    H25      Y    -0.00287 -0.02148 -0.03139  0.03304  0.03640 -0.10173
    H25      Z     0.00534  0.04599 -0.03285 -0.02679  0.09928 -0.11151
    H26      X     0.00039  0.06930  0.03973 -0.07538  0.06276  0.02443
    H26      Y    -0.00360 -0.03876 -0.01122 -0.05416  0.11072  0.02773
    H26      Z    -0.00172 -0.10821 -0.03833  0.02444 -0.00014 -0.05862
    H27      X    -0.00339 -0.00023  0.03212 -0.03584  0.01754 -0.02194
    H27      Y    -0.00891  0.00986  0.01741 -0.05616  0.05390  0.08252
    H27      Z    -0.00136 -0.12234 -0.03767  0.03525 -0.01593 -0.06600
    H28      X     0.01755  0.02518  0.03884 -0.07288  0.05386  0.03536
    H28      Y    -0.01937 -0.00919  0.00474 -0.03769  0.05563  0.03440
    H28      Z     0.00706 -0.11539 -0.05430  0.00602  0.06124 -0.07138
    H29      X    -0.00036  0.12471  0.05172 -0.07681  0.05970  0.00805
    H29      Y    -0.00136 -0.03900 -0.05304  0.02892  0.09380 -0.20018
    H29      Z    -0.00073  0.04097 -0.01096 -0.02604  0.03752 -0.00047
    H30      X     0.00127  0.06176  0.03617 -0.04399  0.03112 -0.02196
    H30      Y    -0.00085 -0.01905 -0.03404  0.05244  0.01580 -0.10760
    H30      Z    -0.00104  0.11068  0.00946 -0.05367  0.04895  0.05020
    H31      X    -0.00083  0.01040 -0.03485 -0.03315 -0.02366  0.00902
    H31      Y     0.00020  0.12134 -0.04145 -0.03305 -0.03913 -0.05798
    H31      Z     0.00067 -0.01081  0.04039  0.05112  0.00691 -0.03418
    H32      X     0.00090  0.03339 -0.07045 -0.07281 -0.04456  0.03006
    H32      Y    -0.00408  0.08145 -0.00260 -0.00568 -0.04822 -0.05722
    H32      Z     0.00278 -0.00735  0.02951  0.03526 -0.00710 -0.02146
    H33      X    -0.00152  0.08990 -0.08032 -0.06504 -0.03762 -0.00316
    H33      Y    -0.00016 -0.07840  0.04971  0.01584 -0.00168  0.01055
    H33      Z    -0.00051 -0.01529 -0.00871 -0.02034 -0.03603  0.03598
    H34      X     0.00067  0.01993 -0.04484 -0.04082 -0.02989  0.01368
    H34      Y     0.00111 -0.11990  0.06873  0.03057  0.00345  0.02322
    H34      Z    -0.00221  0.00931 -0.03616 -0.03649 -0.04620  0.04872
    H35      X     0.00069 -0.14897 -0.00399 -0.02657 -0.02220  0.06515
    H35      Y     0.00217  0.01409  0.01656  0.00495 -0.02409 -0.01150
    H35      Z    -0.00026  0.00945 -0.01337 -0.01347  0.01421  0.00172
    H36      X    -0.00045 -0.11200  0.00431 -0.02292 -0.01213  0.02567
    H36      Y    -0.00026 -0.05126  0.03217 -0.00024 -0.00504 -0.01560
    H36      Z     0.00065 -0.06185 -0.02237 -0.01993  0.00096  0.06255
    H37      X    -0.00309 -0.12691  0.02851 -0.01818  0.01049 -0.05029
    H37      Y    -0.00061  0.01167  0.00589 -0.00311 -0.00509  0.01093
    H37      Z    -0.00700  0.01133 -0.02117 -0.01770  0.03748  0.00443
    H38      X     0.00010 -0.07424  0.01501 -0.01987 -0.00047 -0.01775
    H38      Y    -0.00033  0.05496 -0.00890 -0.00627 -0.01401  0.04633
    H38      Z     0.00067  0.07057 -0.00571 -0.01560  0.03078 -0.02745
  
  vibration #            7        8        9       10       11       12
                  -------- -------- -------- -------- -------- --------
  frequencies       119.48   131.79   151.23   166.74   176.28   183.41
  intensities         1.33     3.58     0.17     0.08     0.24     0.86
  reduc. mass         1.20     1.80     1.35     0.35     1.26     0.57
  force const         0.01     0.02     0.02     0.01     0.02     0.01
    Rh1      X    -0.02025  0.02229 -0.01144 -0.00068  0.00270 -0.00699
    Rh1      Y    -0.00494 -0.00965 -0.02264 -0.00610 -0.00209 -0.00819
    Rh1      Z    -0.00083 -0.00357 -0.00149  0.00868  0.00772  0.00726
    O2       X     0.01180 -0.04169 -0.02274  0.01268 -0.04286  0.01166
    O2       Y    -0.00905  0.10450  0.04901  0.01876 -0.04973  0.00399
    O2       Z    -0.00194 -0.01029 -0.00683  0.01358 -0.02120  0.01468
    C3       X     0.01928 -0.05269 -0.01727  0.01165 -0.03638  0.01424
    C3       Y    -0.00354  0.05736  0.03948  0.02545 -0.00725  0.01316
    C3       Z    -0.01825  0.01380 -0.01796  0.01739 -0.03198  0.00897
    N4       X     0.00865 -0.03224 -0.02278  0.01349 -0.04217  0.00963
    N4       Y    -0.00472 -0.04096 -0.02493  0.00710  0.01423  0.00239
    N4       Z    -0.03393  0.03066 -0.03402  0.01855 -0.03725  0.00054
    C5       X    -0.00705 -0.00111 -0.03274  0.01145 -0.03897 -0.00420
    C5       Y    -0.02128 -0.02352 -0.04301 -0.00289 -0.02095 -0.00334
    C5       Z    -0.03691  0.03255 -0.03851  0.01706 -0.04668 -0.00021
    C6       X    -0.00755  0.01854 -0.02701  0.00495 -0.03213 -0.01422
    C6       Y    -0.02100 -0.01298 -0.03395 -0.00891 -0.01708 -0.00673
    C6       Z    -0.04028  0.03560 -0.03510  0.01303 -0.06504  0.00480
    C7       X     0.02007 -0.01050  0.00390  0.00271 -0.00443 -0.00303
    C7       Y    -0.01934  0.00041 -0.02176 -0.00281 -0.01289 -0.00275
    C7       Z    -0.01229  0.00030 -0.02444  0.00966 -0.02124  0.00035
    N8       X     0.05944 -0.03826  0.04733 -0.01373  0.02714 -0.00225
    N8       Y    -0.03242  0.06420  0.00571  0.00492 -0.00387 -0.00825
    N8       Z     0.03780 -0.08585 -0.00829 -0.01360  0.00042  0.00641
    H9       X     0.01401 -0.00050 -0.00531  0.00014 -0.00345 -0.01542
    H9       Y    -0.01277 -0.02074 -0.03214 -0.00609  0.00204 -0.00915
    H9       Z    -0.04400  0.03957 -0.03224  0.00888 -0.07803  0.00649
    H10      X    -0.01713  0.04548 -0.02732 -0.00208 -0.03812 -0.02761
    H10      Y    -0.03048 -0.00494 -0.03399 -0.01259 -0.03790 -0.00327
    H10      Z    -0.04644  0.04603 -0.03473  0.00981 -0.07490  0.00279
    H11      X     0.01530 -0.04265 -0.01866  0.01266 -0.04461  0.01316
    H11      Y    -0.00456 -0.05262 -0.01698  0.01740  0.05350  0.01553
    H11      Z    -0.04642  0.05047 -0.04158  0.02020 -0.03207 -0.00605
    H12      X     0.03484 -0.07962 -0.00813  0.00769 -0.02832  0.02029
    H12      Y     0.00219  0.09240  0.08151  0.04648  0.01364  0.02987
    H12      Z    -0.01965  0.01932 -0.01612  0.01934 -0.03167  0.00954
    P13      X    -0.02660  0.00021  0.00115  0.00834  0.06054  0.00750
    P13      Y     0.01640 -0.00537  0.01240 -0.02008  0.00558 -0.03006
    P13      Z     0.00442 -0.00084  0.01031  0.00622  0.00861  0.01172
    P14      X     0.01095  0.02241  0.02712 -0.02178 -0.01914 -0.00228
    P14      Y    -0.00028 -0.01572 -0.00944  0.00750  0.01046  0.02332
    P14      Z     0.00742 -0.00077  0.00108 -0.03430  0.01596 -0.04047
    C15      X    -0.04397 -0.03112  0.01782 -0.00212  0.05438 -0.00924
    C15      Y     0.01873 -0.00050  0.01515 -0.01385  0.00502 -0.01969
    C15      Z    -0.02087 -0.02337  0.00006 -0.02169  0.02804 -0.03423
    C16      X     0.04940  0.02600  0.01446 -0.01165 -0.00841  0.00539
    C16      Y    -0.03691 -0.02431  0.00640 -0.01601  0.03565 -0.02533
    C16      Z     0.00058 -0.00300 -0.00140 -0.03222  0.00844 -0.03068
    H17      X    -0.02240  0.02304 -0.01788  0.00157 -0.00482 -0.00745
    H17      Y    -0.00531 -0.01579 -0.05376  0.00798 -0.02786 -0.00932
    H17      Z     0.01309 -0.01559 -0.00227  0.01177 -0.00145  0.00726
    H18      X    -0.01144  0.03211 -0.02357 -0.01886 -0.04878 -0.04547
    H18      Y    -0.00304 -0.01085 -0.01930 -0.00718 -0.00654 -0.00726
    H18      Z    -0.00238 -0.01830 -0.00261  0.01565 -0.01185  0.01740
    C19      X     0.01751 -0.00813  0.01509 -0.00501  0.01569 -0.00999
    C19      Y     0.10939  0.05169  0.02339 -0.01832  0.02122 -0.02993
    C19      Z     0.00114  0.07089 -0.00676  0.03875  0.12751  0.05465
    C20      X     0.01444 -0.01655  0.01280  0.00739  0.00292  0.02465
    C20      Y    -0.02633 -0.02473  0.08024 -0.02991 -0.00030 -0.03120
    C20      Z     0.02634 -0.03737  0.07701 -0.00040 -0.07863  0.03880
    C21      X    -0.01111 -0.01653  0.03937 -0.01369 -0.00044 -0.01554
    C21      Y    -0.03832 -0.00913  0.09893  0.03247 -0.01909  0.09043
    C21      Z    -0.03597 -0.03875  0.06773 -0.01539  0.02150 -0.02866
    C22      X     0.04363  0.00051 -0.01085  0.01793 -0.00175  0.03028
    C22      Y     0.07127 -0.03430 -0.06430  0.06282  0.03005  0.07730
    C22      Z     0.10229  0.04519 -0.00662 -0.04507 -0.00670 -0.03463
    H23      X     0.08490  0.03443 -0.00745 -0.01454  0.02841 -0.08676
    H23      Y     0.10994  0.04629  0.01066 -0.02540  0.00664 -0.06532
    H23      Z     0.01648  0.10595  0.04433  0.06728  0.19649  0.19104
    H24      X     0.02322 -0.06238  0.05865 -0.00467 -0.06391  0.04289
    H24      Y    -0.02339 -0.00681  0.12000 -0.02574 -0.03437 -0.02042
    H24      Z     0.02432 -0.03552  0.06157  0.00022 -0.06166  0.03385
    H25      X     0.04565 -0.05238  0.04243  0.28239  0.01407 -0.24086
    H25      Y    -0.04760 -0.00019  0.08580 -0.04176 -0.01968  0.13674
    H25      Z    -0.02688 -0.08050  0.20903  0.32479  0.00550 -0.17347
    H26      X    -0.00392 -0.01529  0.01585 -0.00259 -0.00026  0.15774
    H26      Y     0.13798 -0.01745 -0.06785  0.04979  0.02142  0.24940
    H26      Z     0.10944  0.04826 -0.01535 -0.03634 -0.00596 -0.10156
    H27      X     0.05767  0.01471 -0.01166  0.01334 -0.00842 -0.05516
    H27      Y     0.07427 -0.06175 -0.11386  0.12786  0.05534 -0.01010
    H27      Z     0.12087  0.05179 -0.02692 -0.02553 -0.00482 -0.17354
    H28      X     0.09610 -0.01513 -0.06585  0.07624  0.01887  0.03506
    H28      Y     0.05232 -0.03259 -0.05277  0.05287  0.02662  0.05038
    H28      Z     0.14509  0.06286  0.01176 -0.08173 -0.02074  0.16139
    H29      X    -0.06729 -0.02967  0.05236 -0.21261  0.01137  0.10875
    H29      Y    -0.00820 -0.05940  0.23573  0.46969 -0.03200 -0.12332
    H29      Z    -0.02561 -0.02366  0.03409 -0.05141  0.02072 -0.01930
    H30      X    -0.02860  0.00544  0.03579 -0.12860 -0.01023  0.07801
    H30      Y    -0.08766  0.02995  0.07330 -0.28081 -0.02888  0.31062
    H30      Z    -0.08605 -0.03799  0.01534 -0.31960  0.04267  0.12055
    H31      X    -0.01598 -0.00494  0.00658  0.00804  0.05154  0.01537
    H31      Y     0.15886  0.06642 -0.01014 -0.03929 -0.00380 -0.14375
    H31      Z    -0.01060  0.09388 -0.06217  0.04170  0.17098 -0.02186
    H32      X     0.01695 -0.05712  0.05498 -0.02200 -0.06890  0.01562
    H32      Y     0.12622  0.08470  0.07706  0.00760  0.08442  0.10355
    H32      Z    -0.00079  0.06718 -0.01330  0.03578  0.12047  0.03882
    H33      X     0.05015  0.01631 -0.03074  0.02514 -0.00126  0.03727
    H33      Y    -0.02569 -0.02590  0.07609 -0.03020  0.00260 -0.03220
    H33      Z     0.02200 -0.02153  0.12001  0.00291 -0.11212  0.04900
    H34      X    -0.00309 -0.01512  0.01536  0.00383  0.02799  0.01285
    H34      Y    -0.05791 -0.05430  0.10127 -0.04583  0.01834 -0.04728
    H34      Z     0.04078 -0.07598  0.09327 -0.00815 -0.13005  0.05514
    H35      X    -0.10313 -0.08036  0.02249 -0.00162  0.09810 -0.03304
    H35      Y     0.02968  0.01397  0.00903  0.00700 -0.00378  0.00984
    H35      Z     0.00262 -0.00456 -0.00101 -0.02460  0.01060 -0.02790
    H36      X    -0.03974 -0.03236  0.02003 -0.00502  0.05238 -0.01385
    H36      Y     0.04578  0.00460  0.02166 -0.02301 -0.01148 -0.02974
    H36      Z    -0.09623 -0.08128  0.00557 -0.02448  0.08031 -0.06416
    H37      X     0.13121  0.05939  0.00981 -0.00288 -0.05295  0.03538
    H37      Y    -0.02669 -0.01995  0.00884 -0.01639  0.03036 -0.02604
    H37      Z    -0.00313 -0.00574 -0.01711 -0.02315  0.00846 -0.00661
    H38      X     0.03134  0.01746  0.01578 -0.01204  0.00229 -0.00006
    H38      Y    -0.12502 -0.06418  0.01270 -0.02152  0.08591 -0.05475
    H38      Z     0.01906  0.01826  0.00227 -0.04590 -0.01505 -0.03808
  
  vibration #           13       14       15       16       17       18
                  -------- -------- -------- -------- -------- --------
  frequencies       192.58   197.57   210.05   214.34   220.68   233.05
  intensities         3.58     1.50     0.50     0.53     2.72     0.46
  reduc. mass         2.62     0.49     0.56     0.60     1.67     0.79
  force const         0.06     0.01     0.01     0.02     0.05     0.03
    Rh1      X    -0.01700 -0.00350  0.00430  0.00165  0.01083 -0.01455
    Rh1      Y     0.01851  0.02274  0.00159  0.01950  0.02482  0.00782
    Rh1      Z     0.02786 -0.00399 -0.02128 -0.01517  0.01221 -0.02047
    O2       X     0.00615  0.00223  0.00093 -0.00098 -0.04914  0.01050
    O2       Y     0.03960  0.02580  0.02292  0.01244 -0.07114 -0.00217
    O2       Z     0.02632 -0.00142 -0.02431 -0.01824 -0.02130 -0.00730
    C3       X     0.02086  0.00905  0.00081 -0.00057 -0.05333  0.00331
    C3       Y    -0.00798 -0.03211 -0.02209 -0.02657 -0.00593 -0.00723
    C3       Z    -0.00317 -0.01656 -0.02448 -0.02035 -0.01466  0.00479
    N4       X     0.00122 -0.00008  0.00095 -0.00092 -0.04370  0.01341
    N4       Y    -0.03985 -0.03179 -0.01955 -0.00852  0.03896  0.00937
    N4       Z    -0.03442 -0.02914 -0.02243 -0.01856  0.00124  0.02012
    C5       X    -0.03405 -0.01212  0.00387  0.00517 -0.00333  0.03256
    C5       Y    -0.01000  0.01736  0.03173  0.03339 -0.02785  0.01066
    C5       Z    -0.02895 -0.01949 -0.01225 -0.01026 -0.01513  0.02189
    C6       X    -0.03672 -0.01436 -0.01791  0.00295  0.05923  0.04408
    C6       Y     0.00966  0.03069  0.03125  0.03905 -0.01906  0.00346
    C6       Z     0.01265  0.01625  0.02187  0.01365 -0.07847  0.00286
    C7       X    -0.01358 -0.01107 -0.00558 -0.00449  0.01390  0.01522
    C7       Y     0.00502  0.01948  0.02860  0.02292 -0.03748 -0.00133
    C7       Z    -0.02281 -0.01933 -0.01578 -0.00995  0.00500  0.01663
    N8       X     0.03185  0.00573 -0.01112 -0.00298  0.01474 -0.00817
    N8       Y    -0.02184 -0.02199 -0.02589 -0.01698  0.03113  0.01058
    N8       Z     0.04626  0.03565  0.02969  0.02948 -0.05877 -0.01750
    H9       X    -0.00555 -0.01712 -0.05566 -0.01342  0.11623  0.03503
    H9       Y    -0.00860  0.00542 -0.00241  0.01856  0.03805  0.01435
    H9       Z     0.03795  0.04124  0.04732  0.03096 -0.12343 -0.01002
    H10      X    -0.04664 -0.00930 -0.01262  0.01077  0.06495  0.05154
    H10      Y     0.03591  0.06405  0.07424  0.06479 -0.09538 -0.01350
    H10      Z     0.01950  0.03022  0.04059  0.02571 -0.10630 -0.00193
    H11      X     0.01660  0.00834  0.00281  0.00051 -0.05873  0.00793
    H11      Y    -0.07561 -0.08358 -0.06019 -0.04805  0.09190 -0.00731
    H11      Z    -0.06342 -0.04530 -0.02623 -0.02137  0.03013  0.03018
    H12      X     0.04690  0.02305  0.00062  0.00158 -0.06022 -0.00677
    H12      Y    -0.02488 -0.08354 -0.06383 -0.07515  0.01518 -0.02439
    H12      Z    -0.00755 -0.02181 -0.02742 -0.02400 -0.01243  0.00505
    P13      X    -0.00201  0.00143  0.00888  0.00025 -0.02573 -0.01626
    P13      Y     0.00121 -0.00659 -0.02986 -0.00648 -0.00003 -0.00982
    P13      Z     0.00636  0.00470  0.00980  0.01068  0.02881  0.01226
    P14      X     0.03686  0.02299 -0.00436 -0.00826  0.02610 -0.03119
    P14      Y    -0.00070 -0.00246  0.00435 -0.01410  0.00813 -0.00793
    P14      Z    -0.02025  0.00514 -0.00206  0.00897  0.00083 -0.01395
    C15      X     0.02761 -0.01655 -0.01051  0.01295 -0.02397  0.05211
    C15      Y     0.00561 -0.00334 -0.02635 -0.00881  0.00720 -0.01101
    C15      Z    -0.00304 -0.00456 -0.00795  0.01440  0.00551  0.01412
    C16      X     0.04504  0.00588 -0.01894  0.01206  0.01286  0.04191
    C16      Y    -0.01582 -0.00028 -0.00532 -0.02381 -0.00668 -0.05856
    C16      Z    -0.01709  0.01037  0.00476  0.00331  0.01267 -0.02951
    H17      X    -0.02255 -0.00613  0.00575  0.00275  0.00871 -0.00571
    H17      Y     0.00374  0.01424 -0.00923  0.02743  0.04817  0.05335
    H17      Z     0.03307 -0.01131 -0.01337 -0.01082  0.03148 -0.01390
    H18      X    -0.00938  0.01456 -0.02041  0.03150  0.05325  0.05455
    H18      Y     0.02288  0.02408 -0.00058  0.01985  0.02812  0.01218
    H18      Z     0.05025 -0.00733 -0.04198 -0.02373  0.00337 -0.02246
    C19      X    -0.00207 -0.01440 -0.01139 -0.00815 -0.03149 -0.00841
    C19      Y    -0.00624 -0.01461 -0.01810  0.00840 -0.04181  0.04868
    C19      Z    -0.00094  0.03332  0.07294  0.04763  0.00133  0.05664
    C20      X    -0.00792  0.02430  0.02726  0.01599  0.03118  0.00420
    C20      Y    -0.07558 -0.04127  0.02821 -0.00270 -0.04290 -0.02287
    C20      Z    -0.06226  0.01173  0.08747  0.03914  0.08297  0.03597
    C21      X     0.00171  0.00491 -0.00170  0.00087 -0.01380  0.02194
    C21      Y     0.05056 -0.01749  0.00222 -0.05539  0.00642  0.00335
    C21      Z    -0.03786 -0.02160 -0.00010  0.00294 -0.04713  0.05277
    C22      X     0.00042 -0.00941  0.00503 -0.03071  0.00894 -0.02647
    C22      Y    -0.06146 -0.05265  0.01980 -0.05276 -0.02679 -0.00492
    C22      Z    -0.04441  0.00420  0.00609 -0.01136 -0.02442 -0.02434
    H23      X     0.11861 -0.23701  0.10306  0.02172 -0.04794  0.09479
    H23      Y     0.04787 -0.10813  0.02049  0.01052 -0.02797  0.06066
    H23      Z    -0.20966  0.39017 -0.06931  0.04618 -0.06577  0.03158
    H24      X    -0.06550  0.07438 -0.03448  0.00897  0.07670  0.19970
    H24      Y    -0.12108 -0.11724  0.28092  0.06655 -0.02599 -0.29136
    H24      Z    -0.04404  0.02295  0.03639  0.02380  0.07307  0.07280
    H25      X    -0.04556  0.03984 -0.03418  0.11833 -0.00503 -0.01562
    H25      Y     0.05677 -0.02338  0.01026 -0.07811  0.00586  0.00909
    H25      Z    -0.02910 -0.01440 -0.03662  0.06287 -0.05557  0.05213
    H26      X     0.00244 -0.12213 -0.15492  0.25702  0.01218 -0.08399
    H26      Y    -0.13012 -0.21041 -0.14302  0.22722 -0.08024 -0.09604
    H26      Z    -0.03614  0.06393  0.08268 -0.14733 -0.01840  0.00731
    H27      X     0.01450  0.06649  0.08845 -0.17563  0.01378  0.00570
    H27      Y    -0.06658  0.02822  0.17716 -0.33927 -0.01879  0.06321
    H27      Z    -0.02961  0.12844  0.16921 -0.29998 -0.01554  0.04148
    H28      X    -0.04896 -0.01428  0.07941 -0.17622 -0.01716 -0.00504
    H28      Y    -0.04155 -0.02764  0.02990 -0.06694 -0.01401  0.00385
    H28      Z    -0.10008 -0.17623 -0.21384  0.37623 -0.07059 -0.13408
    H29      X    -0.01250 -0.03757  0.02183 -0.06175 -0.07521  0.11850
    H29      Y     0.04961  0.00340 -0.04506  0.04040  0.01059 -0.02029
    H29      Z    -0.03332 -0.01346  0.00307  0.00089 -0.02996  0.02927
    H30      X     0.03068 -0.00448  0.01013 -0.04828 -0.00508  0.02108
    H30      Y     0.09225 -0.04831  0.03570 -0.16730  0.00179  0.03429
    H30      Z    -0.06477 -0.06041  0.03439 -0.06524 -0.10359  0.14298
    H31      X    -0.01048  0.02065  0.00318  0.00087 -0.01868 -0.01976
    H31      Y     0.16332 -0.31973  0.11521  0.02836 -0.03113  0.13458
    H31      Z     0.17301 -0.23891  0.25274  0.08847  0.04037  0.13025
    H32      X    -0.10382  0.13678 -0.15525 -0.05600 -0.03953 -0.08728
    H32      Y    -0.21842  0.34370 -0.16895  0.00321 -0.11258  0.01992
    H32      Z     0.02459 -0.00950  0.09136  0.04852  0.00978  0.06050
    H33      X     0.05309  0.00580  0.14431  0.05822  0.08503 -0.18264
    H33      Y    -0.07058 -0.03470  0.00699 -0.00835 -0.04342 -0.00190
    H33      Z    -0.11543 -0.06271  0.33121  0.10461  0.09159 -0.21455
    H34      X    -0.01243  0.01512 -0.00126  0.00079 -0.00613  0.01689
    H34      Y    -0.10789 -0.00715 -0.14007 -0.05765 -0.09767  0.19775
    H34      Z    -0.08622  0.07879 -0.02503  0.01990  0.13002  0.25620
    H35      X     0.03881 -0.04723 -0.02395  0.02848 -0.05121  0.11992
    H35      Y     0.01012  0.00938 -0.01822 -0.01477  0.02371 -0.02947
    H35      Z    -0.00832  0.00647 -0.00301  0.00856  0.01495 -0.01225
    H36      X     0.03511 -0.02070 -0.01712  0.01753 -0.02425  0.07191
    H36      Y     0.03083 -0.01181 -0.04719  0.00506  0.01292  0.04618
    H36      Z    -0.00062 -0.03757 -0.01615  0.02639 -0.02945  0.07379
    H37      X     0.07983  0.00039 -0.03953  0.03930  0.03438  0.13623
    H37      Y    -0.01279 -0.00097 -0.00964 -0.02078 -0.00511 -0.04997
    H37      Z    -0.01045  0.01092  0.01593  0.00382  0.01822 -0.01393
    H38      X     0.03934  0.00520 -0.01534  0.00819  0.00734  0.02876
    H38      Y    -0.04763 -0.00027  0.01399 -0.04759 -0.03249 -0.13750
    H38      Z    -0.02466  0.02989  0.00945 -0.01472  0.02921 -0.09701
  
  vibration #           19       20       21       22       23       24
                  -------- -------- -------- -------- -------- --------
  frequencies       234.62   253.63   266.54   270.34   284.02   307.88
  intensities         0.19     0.87     4.31     9.63    26.45     0.98
  reduc. mass         0.49     0.92     2.74     6.10     9.94     1.21
  force const         0.02     0.03     0.11     0.26     0.47     0.07
    Rh1      X     0.02174 -0.00313  0.00609  0.03030 -0.05001 -0.00679
    Rh1      Y    -0.00709  0.00640 -0.02786 -0.00705 -0.01527 -0.00719
    Rh1      Z     0.00251  0.00993 -0.01846  0.03498  0.01289 -0.00416
    O2       X    -0.01397  0.00279  0.00826 -0.03763 -0.00217  0.00685
    O2       Y     0.01854 -0.00434  0.01660  0.01359  0.01094 -0.00088
    O2       Z    -0.01554  0.00814 -0.01820 -0.09634 -0.08020 -0.00774
    C3       X    -0.01101  0.00513  0.00158 -0.04673 -0.01743  0.00544
    C3       Y    -0.01114  0.01482  0.01757 -0.00125 -0.01219  0.00562
    C3       Z    -0.02032  0.00495 -0.00426 -0.07004 -0.04746 -0.00277
    N4       X    -0.01498  0.00170  0.00751 -0.02406  0.01865  0.00828
    N4       Y    -0.02295  0.00254 -0.01168 -0.01063  0.00746  0.00144
    N4       Z    -0.02611 -0.00085  0.00201 -0.03337  0.00646  0.00238
    C5       X    -0.01916 -0.00930  0.00500  0.03222  0.09897  0.00801
    C5       Y     0.01246 -0.01162  0.00308  0.04408  0.05205  0.00046
    C5       Z    -0.02075 -0.00357  0.00569 -0.02632  0.01654  0.00346
    C6       X    -0.03884 -0.00762 -0.02678 -0.00158  0.09999 -0.00906
    C6       Y     0.01721 -0.00607 -0.00567  0.04036  0.03263 -0.00561
    C6       Z     0.00877  0.00250  0.02408  0.02011  0.01629  0.00816
    C7       X    -0.01483 -0.00406  0.00122  0.01848  0.05361  0.00563
    C7       Y     0.01839 -0.00816  0.00844  0.03501  0.01268  0.00107
    C7       Z    -0.02037 -0.00228 -0.00082 -0.03107  0.00297  0.00129
    N8       X    -0.00856  0.00492 -0.00841 -0.00784 -0.00286 -0.00236
    N8       Y    -0.02013  0.00217 -0.00788 -0.03440 -0.01868 -0.00512
    N8       Z     0.02176 -0.00336  0.00501  0.00778 -0.02313 -0.00089
    H9       X    -0.05807  0.01330 -0.05720 -0.02375  0.08671 -0.01912
    H9       Y    -0.00882 -0.00498 -0.02847  0.01014  0.04229 -0.01347
    H9       Z     0.03065  0.00596  0.04037  0.04521  0.00310  0.01412
    H10      X    -0.04461 -0.01620 -0.02778 -0.04565  0.06890 -0.00484
    H10      Y     0.05327 -0.00481  0.02559  0.07803  0.00979  0.00732
    H10      Z     0.02091  0.00056  0.03607  0.02268 -0.00098  0.01437
    H11      X    -0.01238  0.00349  0.00605 -0.04426 -0.00639  0.00690
    H11      Y    -0.03795  0.02304 -0.00236 -0.02542 -0.05123  0.00492
    H11      Z    -0.03094 -0.00400  0.00462  0.00535  0.05378  0.00494
    H12      X    -0.00785  0.00763 -0.01073 -0.08534 -0.06183 -0.00095
    H12      Y    -0.02805  0.04121  0.04058 -0.00877 -0.05012  0.01449
    H12      Z    -0.02217  0.00647 -0.00130 -0.06751 -0.04568 -0.00155
    P13      X     0.01049  0.02496 -0.03527 -0.02026  0.02487  0.03864
    P13      Y    -0.01295  0.01673  0.06365  0.01161  0.00064  0.04757
    P13      Z     0.00844 -0.00588 -0.00130  0.02580  0.00323 -0.01756
    P14      X     0.01930 -0.00665  0.00655 -0.04051  0.03161 -0.02389
    P14      Y     0.00408  0.00405 -0.00249 -0.01674 -0.00578 -0.00264
    P14      Z     0.01129 -0.05479  0.01265 -0.02052  0.00468  0.05536
    C15      X    -0.05089 -0.04087  0.04982  0.00373 -0.00351 -0.06711
    C15      Y    -0.00976  0.02953  0.06674  0.01551  0.00295  0.04385
    C15      Z    -0.00412 -0.06212  0.05174  0.00018 -0.00477 -0.03301
    C16      X    -0.04171 -0.03041 -0.00771  0.01334 -0.01847  0.07482
    C16      Y     0.02824  0.02162  0.06931 -0.04226  0.03960 -0.03714
    C16      Z     0.03038 -0.05888  0.00631 -0.03745  0.01364  0.02022
    H17      X     0.01576 -0.00407  0.00496  0.02610 -0.03105 -0.00389
    H17      Y    -0.04808  0.01478 -0.06568 -0.02093  0.02302 -0.00942
    H17      Z     0.00888  0.01114 -0.00018  0.08512  0.03281 -0.01938
    H18      X    -0.04928 -0.00897 -0.03121 -0.05898  0.08895  0.00606
    H18      Y    -0.01281  0.00836 -0.02888 -0.01535  0.01151 -0.00802
    H18      Z    -0.00808  0.03999 -0.00431  0.06275  0.02059 -0.01625
    C19      X     0.01097 -0.02394 -0.08004  0.00654  0.01489 -0.01671
    C19      Y    -0.02008 -0.06708 -0.01167  0.00426 -0.01167 -0.04708
    C19      Z     0.00439  0.02051  0.00747 -0.04722  0.01973  0.00966
    C20      X    -0.00403  0.04722  0.05634 -0.02329  0.00730  0.06030
    C20      Y     0.03921 -0.01013 -0.07864 -0.01871  0.00891  0.02722
    C20      Z     0.02919 -0.00100  0.02069  0.00103 -0.02338 -0.02931
    C21      X    -0.03491  0.08839 -0.01285  0.00229  0.00007 -0.04796
    C21      Y     0.00263 -0.03029  0.00683  0.00059  0.02177 -0.00624
    C21      Z    -0.05072  0.02840 -0.00414  0.04047 -0.02013  0.04755
    C22      X     0.03090 -0.05182  0.02044 -0.01459  0.02775 -0.00099
    C22      Y     0.01852 -0.01199  0.01658  0.02973 -0.01651 -0.00057
    C22      Z     0.00188  0.09522  0.00832 -0.00420  0.01665 -0.04838
    H23      X     0.06879 -0.06907 -0.13961 -0.02808  0.01141 -0.11003
    H23      Y     0.00963 -0.05087 -0.00751  0.00119 -0.01148 -0.03987
    H23      Z    -0.11366 -0.06581 -0.02644 -0.04219  0.01787 -0.04986
    H24      X     0.22505  0.09706  0.10027 -0.05263 -0.01413  0.06752
    H24      Y    -0.26086 -0.08091 -0.14478 -0.01563 -0.00604  0.00755
    H24      Z     0.06929  0.00913  0.03024  0.00434 -0.01697 -0.02548
    H25      X    -0.01941  0.13885 -0.02004 -0.01419 -0.02636 -0.05957
    H25      Y     0.00105 -0.03994  0.00787  0.00086  0.02473 -0.00416
    H25      Z    -0.05972  0.05078 -0.00369  0.06611 -0.01021  0.04678
    H26      X     0.06277 -0.15218  0.02954 -0.03919  0.03188  0.08267
    H26      Y     0.05928  0.07214  0.04541  0.04163  0.00286 -0.08162
    H26      Z    -0.01428  0.11845  0.00152  0.00257  0.01281 -0.06650
    H27      X     0.00571  0.02475  0.00761 -0.01305  0.02759 -0.05921
    H27      Y     0.01240 -0.11406  0.02417  0.07063 -0.04037  0.06413
    H27      Z    -0.03167  0.15105 -0.00442  0.01330  0.00716 -0.09589
    H28      X     0.04337 -0.08628  0.04329  0.03896  0.01433  0.00458
    H28      Y     0.01004 -0.01429  0.00791  0.01718 -0.01629  0.00717
    H28      Z     0.04419  0.17755  0.03118 -0.01304  0.04163 -0.11929
    H29      X    -0.12227  0.19250 -0.03576  0.07447 -0.03331 -0.05334
    H29      Y     0.01083 -0.01581  0.00870  0.01012  0.02870 -0.00704
    H29      Z    -0.02669 -0.00557  0.00227  0.01702 -0.01170  0.04969
    H30      X    -0.02452  0.03813 -0.00437 -0.00479  0.02064 -0.03840
    H30      Y    -0.00787 -0.08221  0.01317  0.00890  0.04377  0.00730
    H30      Z    -0.13193  0.13585 -0.02867  0.09836 -0.06076  0.03667
    H31      X     0.00663  0.03003 -0.03227 -0.02073  0.02771  0.05343
    H31      Y     0.06740 -0.07918 -0.05389 -0.01598 -0.01469 -0.11025
    H31      Z     0.09396  0.11707  0.05784 -0.12474  0.04243  0.08168
    H32      X    -0.03879 -0.08617 -0.11081  0.09331 -0.01139 -0.06198
    H32      Y    -0.13938 -0.16206 -0.05292  0.01686 -0.01586 -0.11528
    H32      Z     0.01839  0.03185  0.01278 -0.04902  0.02043  0.01769
    H33      X    -0.29380  0.03353  0.18571  0.01009 -0.00709  0.07258
    H33      Y     0.06161 -0.00423 -0.07087 -0.01809  0.01003  0.02919
    H33      Z    -0.24093 -0.06896 -0.06048 -0.00176 -0.03636 -0.04811
    H34      X     0.03962  0.03540 -0.01184 -0.02577  0.02045  0.05059
    H34      Y     0.35448  0.01627 -0.17303 -0.04241  0.02565  0.01889
    H34      Z     0.26769  0.06600  0.11365 -0.01997 -0.04271 -0.00925
    H35      X    -0.10833 -0.10500  0.16029  0.02831 -0.02670 -0.24014
    H35      Y     0.01577  0.09321  0.00781  0.02598  0.01032  0.09269
    H35      Z     0.01693 -0.04347  0.01250 -0.01156  0.00423  0.03300
    H36      X    -0.06689 -0.05965  0.06925  0.01251 -0.01430 -0.08580
    H36      Y    -0.05664 -0.02249  0.11345  0.04389 -0.03193  0.01479
    H36      Z    -0.05723 -0.13212  0.16938  0.01297 -0.02147 -0.22940
    H37      X    -0.10993 -0.05362 -0.07118  0.10193 -0.10955  0.25529
    H37      Y     0.02076  0.02232  0.06928 -0.03190  0.03207 -0.01683
    H37      Z     0.02657 -0.07654 -0.03497 -0.03641 -0.00495  0.02280
    H38      X    -0.03205 -0.02789  0.00476 -0.00079 -0.00390  0.03914
    H38      Y     0.08580  0.04088  0.13502 -0.12140  0.12240 -0.22489
    H38      Z     0.08058 -0.02823  0.00936 -0.07889  0.05822 -0.00039
  
  vibration #           25       26       27       28       29       30
                  -------- -------- -------- -------- -------- --------
  frequencies       326.97   338.58   361.77   382.92   434.38   444.54
  intensities         8.50    17.63     6.62    27.45     9.28     6.07
  reduc. mass         5.45     1.57     7.12     3.53     3.16     1.79
  force const         0.34     0.11     0.55     0.30     0.35     0.21
    Rh1      X    -0.00043  0.00718 -0.00494  0.00134 -0.00114  0.00191
    Rh1      Y    -0.01796 -0.02430 -0.01534 -0.01486  0.01111  0.00622
    Rh1      Z     0.01368  0.00873 -0.03276 -0.00165 -0.00308 -0.00243
    O2       X     0.00639 -0.01457 -0.00047 -0.07020 -0.04028  0.00294
    O2       Y    -0.02486  0.08401 -0.00454 -0.03190  0.01243 -0.01093
    O2       Z    -0.04409  0.04687  0.01202  0.14009  0.05568 -0.00599
    C3       X    -0.00386 -0.00060  0.00046 -0.02149 -0.01680  0.00023
    C3       Y     0.03059 -0.11141  0.01265  0.04179 -0.02085  0.00404
    C3       Z    -0.01618  0.01314  0.00511  0.02473  0.01087 -0.00004
    N4       X     0.00943 -0.01809 -0.00047 -0.04708 -0.01540  0.00083
    N4       Y    -0.00375  0.01918 -0.00542 -0.02731  0.02752 -0.00520
    N4       Z     0.00455  0.00157 -0.00276 -0.04802  0.00893  0.00116
    C5       X     0.01380  0.00270  0.00219  0.02685  0.06435 -0.00391
    C5       Y    -0.00734  0.04832  0.00342  0.04002  0.00188 -0.00508
    C5       Z     0.00283  0.00852 -0.00017 -0.04246 -0.01027  0.00046
    C6       X    -0.02485  0.02833  0.00884  0.10861 -0.11533 -0.00742
    C6       Y    -0.01320  0.01162  0.00388  0.07918 -0.05293 -0.00258
    C6       Z     0.03774 -0.10609  0.00913  0.02588 -0.00950  0.00511
    C7       X     0.01566 -0.01220  0.00008  0.01722  0.18223  0.00412
    C7       Y    -0.00179  0.02077  0.00403  0.03222  0.04470  0.00157
    C7       Z    -0.00410  0.02866 -0.00603 -0.06576  0.02588  0.00175
    N8       X     0.00119 -0.02555  0.00007  0.02011 -0.02322 -0.00200
    N8       Y    -0.01392  0.02657 -0.00299 -0.03460 -0.07818 -0.00169
    N8       Z    -0.00727  0.01315  0.00126 -0.00263 -0.06587 -0.00097
    H9       X    -0.04686  0.01707 -0.02633  0.04806 -0.12238 -0.02898
    H9       Y    -0.04675  0.10806 -0.01145  0.02929 -0.08394 -0.01800
    H9       Z     0.06620 -0.20672  0.01645  0.06159  0.02211  0.01627
    H10      X    -0.04265  0.02687  0.01072  0.07395 -0.08867  0.01561
    H10      Y     0.03218 -0.12533  0.01824  0.12316  0.02136  0.01834
    H10      Z     0.05096 -0.15930  0.01531  0.03349  0.02554  0.01933
    H11      X    -0.00093  0.00156  0.00027 -0.05781 -0.03235 -0.00125
    H11      Y     0.06200 -0.25307  0.00994  0.07160 -0.01859  0.03937
    H11      Z     0.02461 -0.03766 -0.00398 -0.02512  0.04063  0.00535
    H12      X    -0.03691  0.03548  0.01171  0.08855  0.01865 -0.00458
    H12      Y     0.10060 -0.36409  0.03834  0.13994 -0.08128  0.02054
    H12      Z    -0.00834 -0.00840  0.00622  0.02133  0.00341  0.00160
    P13      X    -0.01714 -0.00594  0.01591 -0.00480  0.00038 -0.01779
    P13      Y    -0.02614  0.00007  0.01238 -0.00132  0.00070 -0.04766
    P13      Z    -0.04080 -0.00841  0.11171 -0.01963  0.00137  0.01087
    P14      X     0.01252 -0.00433  0.00386 -0.00531  0.00399 -0.00486
    P14      Y     0.11099  0.03625  0.04307  0.00528 -0.00374 -0.00790
    P14      Z     0.01582  0.00273 -0.00992  0.00393 -0.00324  0.04646
    C15      X     0.01491  0.00705 -0.02056  0.00461 -0.00231  0.05161
    C15      Y    -0.02933  0.01204  0.04915 -0.00438  0.00061  0.03718
    C15      Z    -0.01746 -0.02112  0.03424 -0.01032  0.00460 -0.12500
    C16      X     0.04341  0.01948  0.01327  0.00302 -0.00283  0.06609
    C16      Y     0.01740  0.01971  0.00568  0.00316 -0.00265  0.10752
    C16      Z     0.03492 -0.00691  0.01024 -0.00373  0.00054 -0.06120
    H17      X    -0.00119  0.00822 -0.00404  0.00706  0.00256  0.00132
    H17      Y    -0.01769 -0.06124 -0.02295 -0.03917  0.06464  0.02104
    H17      Z     0.03689  0.01177 -0.04397  0.00500 -0.01640  0.00753
    H18      X    -0.06200 -0.02757 -0.01463  0.00028  0.03610  0.01452
    H18      Y    -0.01568 -0.02756 -0.00890 -0.00021 -0.00969  0.00015
    H18      Z     0.01191 -0.06345 -0.03556 -0.02636 -0.03062 -0.06703
    C19      X    -0.01940 -0.00869  0.06815 -0.01337  0.00071  0.01270
    C19      Y     0.02052  0.00034 -0.03570  0.00516  0.00023 -0.00468
    C19      Z    -0.00267 -0.00791  0.00431 -0.00590  0.00023  0.00017
    C20      X     0.00446  0.00447 -0.06178  0.00947 -0.00338 -0.04896
    C20      Y    -0.00289 -0.00536 -0.02775  0.00087  0.00020 -0.04259
    C20      Z     0.00950  0.00068  0.00736 -0.00339 -0.00027  0.02916
    C21      X     0.04217  0.01362  0.02544 -0.00336  0.00430 -0.03618
    C21      Y    -0.01442 -0.00052 -0.00075 -0.00263  0.00212 -0.01414
    C21      Z    -0.02943  0.00179 -0.02394  0.00554 -0.00453  0.05260
    C22      X    -0.07457 -0.02627 -0.03400 -0.00624  0.00294  0.01253
    C22      Y     0.00401  0.01554  0.00910  0.00778 -0.00815 -0.00426
    C22      Z    -0.01998 -0.00438 -0.00677 -0.00239  0.00216  0.00344
    H23      X     0.02549 -0.01051  0.01889 -0.00804 -0.00104  0.07712
    H23      Y     0.01563  0.00185 -0.02267  0.00418  0.00076 -0.00270
    H23      Z     0.03141 -0.01543 -0.06767 -0.00054 -0.00258  0.00867
    H24      X     0.05807  0.00360 -0.19777  0.02975 -0.00884 -0.05651
    H24      Y     0.01197 -0.00856 -0.07787  0.00028 -0.00047 -0.06346
    H24      Z    -0.00123  0.00145  0.03719 -0.00613  0.00061  0.03467
    H25      X     0.15743  0.04533  0.07411  0.00465 -0.00323 -0.04532
    H25      Y    -0.02451 -0.00419 -0.00473 -0.00363  0.00292 -0.01461
    H25      Z    -0.10585 -0.00813 -0.06068  0.00324 -0.00110  0.07823
    H26      X    -0.04279 -0.01613 -0.03834 -0.00540  0.00125  0.06758
    H26      Y    -0.08299  0.00410 -0.02215  0.00641 -0.00493 -0.02047
    H26      Z    -0.01934 -0.00612 -0.00122 -0.00252  0.00217 -0.01326
    H27      X    -0.05322 -0.02407 -0.01541 -0.00840  0.00641 -0.03019
    H27      Y    -0.07683 -0.00336 -0.02708  0.01714 -0.02026  0.02631
    H27      Z    -0.02455 -0.00895  0.00244 -0.00150  0.00139 -0.03765
    H28      X    -0.20866 -0.04914 -0.08657  0.00296 -0.00993  0.02527
    H28      Y     0.04259  0.02109  0.02420  0.00614 -0.00580 -0.00563
    H28      Z    -0.05608 -0.00254 -0.02068 -0.00780  0.00867 -0.01066
    H29      X     0.00845  0.02196  0.01488  0.00186  0.00429 -0.00624
    H29      Y    -0.05986 -0.00560 -0.02487 -0.00254  0.00457  0.00569
    H29      Z    -0.00940  0.00068 -0.01571  0.00397 -0.00513  0.04027
    H30      X    -0.01234 -0.00580  0.00091 -0.00861  0.00814 -0.03304
    H30      Y    -0.10318 -0.02721 -0.03925 -0.00949  0.00824 -0.00411
    H30      Z    -0.00492  0.02402 -0.00877  0.01240 -0.00662  0.06562
    H31      X    -0.02534 -0.00785  0.03160 -0.00884 -0.00070 -0.03315
    H31      Y     0.03921  0.00069 -0.03341  0.00437 -0.00015  0.05177
    H31      Z     0.00645 -0.00565 -0.06777  0.00241 -0.00319 -0.02957
    H32      X    -0.05022 -0.00711  0.18561 -0.02467  0.00550  0.03677
    H32      Y     0.05278 -0.00758 -0.09542  0.00821 -0.00129  0.01110
    H32      Z    -0.00629 -0.00701  0.01073 -0.00627  0.00032 -0.00181
    H33      X    -0.01042  0.02212 -0.04400  0.00937 -0.00209 -0.03034
    H33      Y    -0.00482 -0.00481 -0.02257  0.00052  0.00021 -0.04129
    H33      Z     0.02830 -0.00666 -0.05001 -0.00168 -0.00070  0.00539
    H34      X    -0.00723 -0.00307 -0.02298  0.00166 -0.00231 -0.05023
    H34      Y     0.00199 -0.02213 -0.01921 -0.00232  0.00002 -0.05007
    H34      Z     0.04994  0.00388 -0.09915  0.01539 -0.00345  0.02453
    H35      X     0.00203 -0.00608 -0.06546  0.00936  0.00004 -0.08748
    H35      Y    -0.07405  0.00756  0.12642 -0.01639  0.00491  0.09305
    H35      Z    -0.00579 -0.01493  0.04355 -0.01093  0.00301 -0.07421
    H36      X     0.02178  0.00835 -0.03010  0.00682 -0.00222  0.03910
    H36      Y    -0.00509  0.01915  0.02744  0.00213  0.00054  0.02290
    H36      Z    -0.01793 -0.03192 -0.03129 -0.00217  0.00567 -0.25632
    H37      X     0.08988  0.03910  0.07998  0.00529 -0.00514 -0.09499
    H37      Y     0.00821  0.01856  0.01281  0.00229 -0.00187  0.09158
    H37      Z     0.11780  0.01351  0.01790  0.00246 -0.00509 -0.07487
    H38      X     0.03486  0.01572  0.00152  0.00270 -0.00245  0.09061
    H38      Y    -0.03156 -0.00136 -0.05633  0.00038  0.00014  0.24436
    H38      Z     0.00103 -0.02258  0.00483 -0.01254  0.00607 -0.05019
  
  vibration #           31       32       33       34       35       36
                  -------- -------- -------- -------- -------- --------
  frequencies       482.61   569.42   577.23   598.69   629.70   642.96
  intensities        15.38    22.76    57.57    13.18     1.84    13.63
  reduc. mass         2.35     1.94     0.66     3.74     1.09     1.86
  force const         0.32     0.37     0.13     0.79     0.26     0.45
    Rh1      X    -0.00101  0.00212  0.00104  0.00091  0.00128  0.00027
    Rh1      Y     0.00395  0.00452  0.00020  0.00139  0.00049 -0.00310
    Rh1      Z     0.00181 -0.00371 -0.00080  0.00018 -0.00474 -0.00466
    O2       X     0.01985 -0.02904  0.01182 -0.01604 -0.00170 -0.00034
    O2       Y    -0.03846 -0.02400 -0.05137 -0.00953  0.00539  0.00303
    O2       Z    -0.01288  0.01628 -0.00825  0.02640  0.00292  0.00087
    C3       X     0.00579 -0.02889  0.01203  0.01456  0.00062  0.00047
    C3       Y     0.05147  0.02790  0.06759  0.01568 -0.00266 -0.00254
    C3       Z     0.01315  0.02076 -0.00032 -0.04027 -0.00249 -0.00160
    N4       X     0.01274  0.01647 -0.02110  0.00105 -0.00050 -0.00059
    N4       Y    -0.15787  0.00255  0.03645 -0.06556 -0.00250 -0.00177
    N4       Z    -0.00399  0.05133 -0.03269 -0.06226 -0.00363 -0.00232
    C5       X     0.00517  0.12179 -0.03955  0.08436 -0.00181 -0.00361
    C5       Y     0.02727  0.05959 -0.01819  0.09153  0.00020 -0.00130
    C5       Z     0.03490  0.04280 -0.01708 -0.00575 -0.00177 -0.00119
    C6       X    -0.00897 -0.06806  0.02017 -0.06052 -0.00007 -0.00112
    C6       Y    -0.01500 -0.04544  0.01489  0.04318  0.00303 -0.00004
    C6       Z    -0.08468 -0.01368  0.01029 -0.02020  0.00318  0.00342
    C7       X     0.03286 -0.09392  0.04088 -0.02536  0.00411  0.00395
    C7       Y     0.11403 -0.01477  0.00747 -0.15202 -0.00115 -0.00038
    C7       Z     0.02332 -0.12486  0.06828  0.13508  0.00718  0.00472
    N8       X    -0.06476  0.05848 -0.03370  0.00684 -0.00249 -0.00231
    N8       Y     0.00520 -0.01151  0.01200  0.04843  0.00117  0.00009
    N8       Z     0.04189  0.00680 -0.00148 -0.02058 -0.00075 -0.00066
    H9       X    -0.00249  0.00838  0.04097 -0.08913  0.04236  0.02383
    H9       Y     0.13532  0.04370 -0.01103  0.01121  0.02067  0.01243
    H9       Z    -0.23298 -0.08523  0.03985  0.00854 -0.00519 -0.00380
    H10      X     0.05207 -0.11993  0.00924 -0.07995 -0.04193 -0.03969
    H10      Y    -0.19985 -0.13154  0.02930  0.10479 -0.01970 -0.01891
    H10      Z    -0.14058 -0.06150  0.01430 -0.00260 -0.01697 -0.01418
    H11      X    -0.00057  0.00467  0.05631 -0.02104 -0.00302 -0.00215
    H11      Y     0.06978 -0.36391 -0.80313  0.05462  0.03112  0.03291
    H11      Z     0.02528  0.07369 -0.18802 -0.01737  0.00153  0.00098
    H12      X    -0.01635 -0.04864  0.02595  0.06758  0.00519  0.00207
    H12      Y     0.24313  0.07719  0.16699  0.06545 -0.00770 -0.00593
    H12      Z     0.02900  0.02724  0.00366 -0.04294 -0.00324 -0.00204
    P13      X     0.00054 -0.00015 -0.00032  0.00054  0.00406  0.00300
    P13      Y     0.00072 -0.00090  0.00052 -0.00071  0.03231  0.03341
    P13      Z    -0.00034  0.00135  0.00088 -0.00076  0.04115  0.04809
    P14      X     0.00117  0.00068 -0.00088  0.00000 -0.00957  0.01503
    P14      Y    -0.00132  0.00131  0.00007 -0.00011 -0.03641  0.05554
    P14      Z    -0.00117  0.00126  0.00070 -0.00002 -0.02062  0.02485
    C15      X    -0.00184  0.00286  0.00260 -0.00131  0.05333  0.02467
    C15      Y    -0.00075 -0.00241 -0.00491  0.00234 -0.10877 -0.09378
    C15      Z     0.00225 -0.00245 -0.00342  0.00118 -0.01975 -0.07939
    C16      X    -0.00174  0.00331  0.00119 -0.00152  0.07193 -0.07268
    C16      Y    -0.00252  0.00116 -0.00077  0.00001 -0.00568 -0.06796
    C16      Z     0.00074  0.00127 -0.00021 -0.00135  0.08119 -0.08444
    H17      X    -0.00179  0.02105 -0.00819  0.00858  0.00058  0.00119
    H17      Y     0.02845  0.14789 -0.03641  0.01401  0.00309  0.02888
    H17      Z     0.02692 -0.00603  0.02274  0.02289  0.00233  0.00362
    H18      X     0.01589  0.04476 -0.03490  0.02000 -0.02491 -0.02965
    H18      Y    -0.00116 -0.00669  0.00584 -0.00393  0.00668  0.00473
    H18      Z    -0.03697  0.11174  0.03603 -0.02351  0.12606  0.09412
    C19      X     0.00048 -0.00001 -0.00060  0.00058 -0.06115 -0.04309
    C19      Y     0.00007  0.00016  0.00019  0.00004  0.03088  0.02550
    C19      Z    -0.00012  0.00076 -0.00061  0.00010 -0.02222 -0.01194
    C20      X     0.00283 -0.00021 -0.00062 -0.00225  0.02353  0.03141
    C20      Y     0.00328 -0.00108 -0.00032  0.00003  0.01977  0.02456
    C20      Z     0.00050  0.00358 -0.00017 -0.00079 -0.00974 -0.01329
    C21      X     0.00156 -0.00137 -0.00290  0.00051  0.02036 -0.04168
    C21      Y     0.00083 -0.00042 -0.00148  0.00048  0.00416 -0.00890
    C21      Z    -0.00168  0.00183  0.00270 -0.00068 -0.02495  0.04717
    C22      X    -0.00176  0.00454  0.00264  0.00153 -0.06462  0.06832
    C22      Y    -0.00388 -0.00249 -0.00073  0.00057  0.03953 -0.03728
    C22      Z     0.00023  0.00066  0.00014  0.00000 -0.01441  0.01826
    H23      X    -0.00215  0.00338  0.00202 -0.00021 -0.05956 -0.08627
    H23      Y    -0.00020  0.00025 -0.00031  0.00042  0.03551  0.03416
    H23      Z     0.00030  0.00162  0.00260 -0.00185 -0.03666 -0.05933
    H24      X     0.00177 -0.00049  0.00232 -0.00492 -0.02402 -0.04092
    H24      Y     0.00717 -0.00181  0.00083  0.00241 -0.03848 -0.04791
    H24      Z    -0.00020  0.00378 -0.00080 -0.00100  0.01038  0.01336
    H25      X     0.00134 -0.00195 -0.00210  0.00062  0.00099  0.01489
    H25      Y     0.00065 -0.00026 -0.00137  0.00048  0.00224 -0.00841
    H25      Z     0.00052  0.00125  0.00007 -0.00068  0.02482 -0.05038
    H26      X    -0.00129  0.00736  0.00220 -0.00112 -0.05049  0.09288
    H26      Y    -0.00037 -0.00748 -0.00242 -0.00040  0.04021 -0.09293
    H26      Z    -0.00067  0.00036  0.00064  0.00099 -0.02047  0.01800
    H27      X    -0.00005  0.00338 -0.00041  0.00296 -0.07915  0.06623
    H27      Y    -0.00804 -0.00557 -0.00012  0.00064  0.06112 -0.07060
    H27      Z     0.00028 -0.00198 -0.00338  0.00236 -0.02382  0.00267
    H28      X    -0.00949 -0.00139  0.00566  0.00055 -0.03740 -0.00414
    H28      Y    -0.00224 -0.00077 -0.00167  0.00111  0.03312 -0.01471
    H28      Z     0.00249 -0.00107  0.00158 -0.00219 -0.02110 -0.01063
    H29      X     0.00246 -0.00324 -0.00434  0.00065  0.07441 -0.11606
    H29      Y     0.00227 -0.00089 -0.00183  0.00084  0.03516 -0.07684
    H29      Z    -0.00229  0.00246  0.00313 -0.00082 -0.04773  0.08400
    H30      X     0.00162 -0.00115 -0.00257  0.00017  0.02000 -0.05796
    H30      Y     0.00061 -0.00031 -0.00155 -0.00014  0.01563 -0.04912
    H30      Z    -0.00250  0.00046  0.00102 -0.00086  0.01067  0.01311
    H31      X     0.00188 -0.00208 -0.00081 -0.00125 -0.07441 -0.04470
    H31      Y    -0.00239  0.00212  0.00182 -0.00001  0.03895  0.00589
    H31      Z     0.00002 -0.00104  0.00073 -0.00356 -0.03904 -0.03647
    H32      X     0.00021 -0.00031 -0.00259  0.00394 -0.03054  0.00927
    H32      Y     0.00016  0.00210  0.00282 -0.00047  0.02073 -0.01937
    H32      Z    -0.00013  0.00056 -0.00090  0.00010 -0.02092 -0.00675
    H33      X     0.00347  0.00202 -0.00071 -0.00072  0.08579  0.09072
    H33      Y     0.00324 -0.00060 -0.00047 -0.00014  0.02602  0.03242
    H33      Z     0.00184  0.00028  0.00152  0.00097 -0.07390 -0.09446
    H34      X     0.00227 -0.00026 -0.00082 -0.00207  0.01294  0.02997
    H34      Y    -0.00081 -0.00148  0.00010 -0.00142 -0.02080 -0.01015
    H34      Z    -0.00199  0.00223  0.00125 -0.00152 -0.02452 -0.04877
    H35      X     0.00062 -0.00914 -0.00375  0.00280 -0.19866  0.10097
[...]
    N8       X    -0.00001 -0.00002 -0.00002 -0.00004  0.00002  0.00011
    N8       Y     0.00002  0.00001  0.00002  0.00004 -0.00002 -0.00011
    N8       Z     0.00001  0.00001  0.00001  0.00004 -0.00002 -0.00010
    H9       X    -0.00008  0.00002 -0.00018 -0.00023  0.00020 -0.00042
    H9       Y     0.00034  0.00073  0.00027  0.00120 -0.00053  0.00239
    H9       Z     0.00033 -0.00027  0.00028  0.00121 -0.00048  0.00246
    H10      X     0.00011  0.00042 -0.00011  0.00031 -0.00029  0.00074
    H10      Y     0.00010  0.00057 -0.00006  0.00040 -0.00041  0.00102
    H10      Z    -0.00032  0.00205  0.00002 -0.00117  0.00086 -0.00264
    H11      X     0.00008  0.00003  0.00034 -0.00027  0.00002  0.00001
    H11      Y    -0.00005 -0.00001 -0.00018 -0.00001  0.00002 -0.00003
    H11      Z     0.00020 -0.00009  0.00003 -0.00008  0.00009  0.00012
    H12      X    -0.00163  0.00035  0.00011 -0.00030 -0.00024 -0.00008
    H12      Y     0.00110 -0.00020 -0.00011  0.00016  0.00014  0.00005
    H12      Z    -0.01557  0.00241  0.00128 -0.00212 -0.00168 -0.00089
    P13      X     0.00024 -0.00007  0.00000  0.00000 -0.00008 -0.00000
    P13      Y     0.00005 -0.00018  0.00001 -0.00000  0.00019 -0.00002
    P13      Z     0.00004 -0.00023  0.00002 -0.00000  0.00035  0.00000
    P14      X     0.00026 -0.00001  0.00016 -0.00000 -0.00000  0.00015
    P14      Y    -0.00022 -0.00000  0.00021 -0.00026  0.00002 -0.00004
    P14      Z    -0.00002 -0.00000  0.00020 -0.00015  0.00001 -0.00023
    C15      X     0.04061  0.00009  0.00000 -0.00048  0.00098  0.00160
    C15      Y    -0.00563  0.00001 -0.00003  0.00012 -0.00008 -0.00031
    C15      Z     0.02331 -0.00032  0.00000 -0.00016  0.00103  0.00049
    C16      X     0.05033  0.00010 -0.00114  0.00000 -0.00045  0.00028
    C16      Y    -0.05688 -0.00009  0.00157 -0.00022  0.00028 -0.00051
    C16      Z    -0.00695 -0.00000  0.00013  0.00012 -0.00000  0.00009
    H17      X    -0.00105  0.00019 -0.00029 -0.00087  0.00243  0.00004
    H17      Y     0.00024 -0.00006  0.00003  0.00020  0.00003  0.00002
    H17      Z     0.00019 -0.00009  0.00001 -0.00013 -0.00030 -0.00001
    H18      X     0.00017 -0.00054 -0.00012  0.00001 -0.00001  0.00023
    H18      Y     0.00037  0.00044 -0.00051  0.00073 -0.00078  0.00031
    H18      Z    -0.00004  0.00008  0.00010 -0.00003 -0.00006 -0.00008
    C19      X    -0.00027 -0.00145  0.00006 -0.00034 -0.02267 -0.00043
    C19      Y    -0.00119  0.00513  0.00004  0.00037  0.04186  0.00059
    C19      Z     0.00045  0.00648 -0.00006  0.00091  0.07474  0.00125
    C20      X    -0.00066 -0.02322  0.00021  0.00015  0.00338 -0.00040
    C20      Y     0.00080 -0.05550  0.00032 -0.00002  0.00370  0.00063
    C20      Z    -0.00038 -0.06455  0.00048  0.00017  0.00664 -0.00008
    C21      X    -0.00097 -0.00003 -0.00137 -0.00069  0.00032 -0.00197
    C21      Y     0.00083 -0.00009 -0.00504 -0.07386  0.00101 -0.01904
    C21      Z    -0.00090 -0.00006 -0.00430 -0.04358  0.00093 -0.01359
    C22      X     0.00027  0.00030  0.03644 -0.01452 -0.00055  0.04291
    C22      Y     0.00031  0.00045  0.05970 -0.01346 -0.00040  0.03302
    C22      Z     0.00198  0.00032  0.05447  0.01423  0.00089 -0.06653
    H23      X    -0.00140  0.00218  0.00006  0.00022  0.02408  0.00027
    H23      Y     0.01435 -0.06334 -0.00025 -0.00575 -0.57319 -0.00843
    H23      Z     0.00292 -0.01335 -0.00005 -0.00113 -0.11727 -0.00175
    H24      X     0.00033  0.09336 -0.00067 -0.00021 -0.00808 -0.00006
    H24      Y     0.00066  0.15385 -0.00112 -0.00039 -0.01579  0.00007
    H24      Z     0.00236  0.67009 -0.00497 -0.00146 -0.06831 -0.00012
    H25      X    -0.00078  0.00015  0.00543  0.09283 -0.00134  0.02310
    H25      Y    -0.00593  0.00101  0.04721  0.65366 -0.00973  0.16944
    H25      Z    -0.00097  0.00007  0.00469  0.05849 -0.00078  0.01488
    H26      X    -0.00761 -0.00134 -0.21002 -0.02085 -0.00184  0.13491
    H26      Y    -0.00215 -0.00052 -0.08165 -0.01072 -0.00080  0.06052
    H26      Z    -0.02165 -0.00417 -0.64456 -0.05307 -0.00502  0.36906
    H27      X     0.00351 -0.00101 -0.06204  0.16366  0.00757 -0.58015
    H27      Y     0.00132 -0.00027 -0.01101  0.05223  0.00242 -0.18506
    H27      Z    -0.00299  0.00094  0.06904 -0.13492 -0.00618  0.47497
    H28      X    -0.00130 -0.00120 -0.16154  0.02932  0.00080 -0.06736
    H28      Y    -0.00002 -0.00454 -0.62125  0.12156  0.00297 -0.26963
    H28      Z    -0.00053 -0.00058 -0.07483  0.01950  0.00059 -0.04966
    H29      X     0.00202  0.00022  0.01580  0.16430 -0.00329  0.05013
    H29      Y     0.00235  0.00016  0.00993  0.10335 -0.00223  0.03285
    H29      Z     0.00766  0.00078  0.04827  0.52253 -0.01077  0.16187
    H30      X     0.00890 -0.00006 -0.00608 -0.24598  0.00094 -0.05452
    H30      Y    -0.00544  0.00002  0.00171  0.12637 -0.00027  0.02636
    H30      Z     0.00291 -0.00003 -0.00249 -0.06152  0.00035 -0.01322
    H31      X     0.00345  0.01511 -0.00074  0.00372  0.24488  0.00486
    H31      Y     0.00239  0.01009 -0.00041  0.00225  0.15081  0.00291
    H31      Z    -0.00185 -0.00575  0.00036 -0.00176 -0.11113 -0.00224
    H32      X    -0.00050  0.00093 -0.00003  0.00001 -0.00061 -0.00000
    H32      Y    -0.00066 -0.00660  0.00007 -0.00094 -0.07677 -0.00128
    H32      Z    -0.00745 -0.05717  0.00029 -0.00786 -0.66728 -0.01093
    H33      X    -0.00010 -0.01250  0.00006  0.00003  0.00081  0.00005
    H33      Y    -0.00552  0.59806 -0.00365  0.00002 -0.04263 -0.00563
    H33      Z    -0.00086  0.04692 -0.00026  0.00005 -0.00269 -0.00059
    H34      X     0.00685  0.19472 -0.00199 -0.00153 -0.03161  0.00477
    H34      Y    -0.00336 -0.09040  0.00089  0.00063  0.01335 -0.00185
    H34      Z     0.00275  0.05645 -0.00057 -0.00052 -0.01067  0.00163
    H35      X    -0.12504  0.00237  0.00005  0.00102 -0.00536 -0.00278
    H35      Y    -0.04012  0.00147  0.00000  0.00011 -0.00302 -0.00088
    H35      Z    -0.29777  0.00469  0.00007  0.00266 -0.01341 -0.00646
    H36      X    -0.36174 -0.00103 -0.00012  0.00494 -0.00446 -0.01692
    H36      Y     0.10405  0.00057  0.00029 -0.00130  0.00065  0.00456
    H36      Z     0.02051 -0.00046 -0.00006 -0.00033 -0.00019  0.00104
    H37      X    -0.06719 -0.00012  0.00108 -0.00045  0.00022 -0.00046
    H37      Y     0.57685  0.00174 -0.01740  0.00379 -0.00256  0.00514
    H37      Z     0.10450  0.00016 -0.00445  0.00187 -0.00049  0.00089
    H38      X    -0.53675 -0.00095  0.00873 -0.00140  0.00517 -0.00148
    H38      Y     0.10130  0.00008 -0.00247 -0.00005 -0.00094  0.00022
    H38      Z    -0.01846  0.00009 -0.00032 -0.00009  0.00024  0.00029
  
  vibration #          103      104      105      106      107      108
                  -------- -------- -------- -------- -------- --------
  frequencies      3159.25  3159.58  3161.56  3169.61  3267.47  3587.03
  intensities         0.21     0.78     0.16     1.24     0.84    88.23
  reduc. mass         0.53     0.55     0.54     0.53     0.58     0.94
  force const         3.14     3.25     3.17     3.12     3.65     7.13
    Rh1      X    -0.00000 -0.00001 -0.00001  0.00004  0.00003  0.00000
    Rh1      Y     0.00001  0.00001  0.00001 -0.00005  0.00001 -0.00001
    Rh1      Z    -0.00000 -0.00000  0.00000  0.00002 -0.00004  0.00001
    O2       X    -0.00003  0.00002 -0.00001 -0.00004 -0.00001 -0.00137
    O2       Y    -0.00004 -0.00000 -0.00000  0.00004 -0.00001 -0.00008
    O2       Z    -0.00000  0.00001 -0.00002 -0.00010 -0.00004 -0.00033
    C3       X     0.00001 -0.00004  0.00002  0.00018  0.00006 -0.00075
    C3       Y    -0.00001 -0.00001 -0.00000 -0.00011  0.00018  0.00005
    C3       Z     0.00001  0.00003  0.00002  0.00065 -0.00026  0.00240
    N4       X     0.00001  0.00002 -0.00001  0.00006 -0.00012  0.06375
    N4       Y    -0.00000 -0.00001 -0.00000  0.00021  0.00009 -0.00064
    N4       Z    -0.00000 -0.00002  0.00000 -0.00010 -0.00039  0.03163
    C5       X     0.00001  0.00003  0.00004 -0.00179 -0.00048 -0.00041
    C5       Y     0.00001 -0.00004  0.00001  0.00326  0.00065  0.00040
    C5       Z     0.00002 -0.00003  0.00000 -0.00151  0.00040 -0.00061
    C6       X     0.00000  0.00001  0.00003  0.00038 -0.02267 -0.00006
    C6       Y     0.00030  0.00004  0.00008 -0.06544  0.00925  0.00021
    C6       Z     0.00004 -0.00020  0.00004 -0.00143  0.09093 -0.00033
    C7       X    -0.00000 -0.00005 -0.00001 -0.00023  0.00019 -0.00002
    C7       Y    -0.00001  0.00005  0.00001  0.00023 -0.00022 -0.00013
    C7       Z    -0.00000  0.00027 -0.00001  0.00029  0.00005  0.00002
    N8       X    -0.00000  0.00011  0.00000  0.00014  0.00005  0.00002
    N8       Y    -0.00000 -0.00005 -0.00000 -0.00015 -0.00001  0.00006
    N8       Z     0.00000 -0.00004 -0.00001 -0.00016 -0.00009  0.00005
    H9       X     0.00059 -0.00005  0.00016 -0.12358  0.08464  0.00035
    H9       Y    -0.00268  0.00011 -0.00095  0.54047 -0.38447 -0.00042
    H9       Z    -0.00272  0.00002 -0.00101  0.55283 -0.38185  0.00031
    H10      X    -0.00061 -0.00001 -0.00019  0.13887  0.18480  0.00007
    H10      Y    -0.00081 -0.00051 -0.00026  0.19082  0.26505  0.00044
    H10      Z     0.00224  0.00135  0.00077 -0.52167 -0.69385 -0.00026
    H11      X    -0.00005  0.00007  0.00001 -0.00056  0.00006 -0.85149
    H11      Y     0.00003  0.00006  0.00000 -0.00100 -0.00008  0.00262
    H11      Z    -0.00000  0.00010  0.00002  0.00129 -0.00066 -0.44337
    H12      X    -0.00005  0.00000 -0.00005 -0.00077  0.00024  0.00111
    H12      Y    -0.00002  0.00006  0.00003  0.00038 -0.00010  0.00025
    H12      Z     0.00013 -0.00031 -0.00023 -0.00559  0.00132 -0.01067
    P13      X    -0.00001  0.00021 -0.00012  0.00002 -0.00000  0.00002
    P13      Y     0.00001 -0.00020 -0.00025 -0.00000 -0.00001 -0.00000
    P13      Z     0.00001  0.00004  0.00012 -0.00001 -0.00001  0.00002
    P14      X    -0.00023 -0.00001 -0.00001  0.00000 -0.00001 -0.00002
    P14      Y     0.00015  0.00000  0.00001  0.00003  0.00000  0.00003
    P14      Z    -0.00021 -0.00002 -0.00001 -0.00003  0.00004  0.00001
    C15      X    -0.00027  0.00128 -0.00052  0.00001 -0.00000 -0.00001
    C15      Y     0.00003 -0.00011  0.00017 -0.00001 -0.00001  0.00001
    C15      Z    -0.00008  0.00032 -0.00039  0.00002  0.00002 -0.00003
    C16      X    -0.00130  0.00014 -0.00114 -0.00006  0.00001  0.00000
    C16      Y     0.00071 -0.00010  0.00069  0.00011  0.00002 -0.00001
    C16      Z     0.00021 -0.00003  0.00007 -0.00001 -0.00001 -0.00000
    H17      X     0.00143  0.00031  0.00243 -0.00081 -0.00034 -0.00008
    H17      Y    -0.00010 -0.00007 -0.00011 -0.00019  0.00002  0.00011
    H17      Z    -0.00014  0.00020  0.00041  0.00005  0.00009  0.00041
    H18      X    -0.00005 -0.00011 -0.00034 -0.00344  0.00120  0.00025
    H18      Y    -0.00039  0.00020  0.00029  0.00837 -0.00035  0.00024
    H18      Z    -0.00011 -0.00004 -0.00020 -0.00055 -0.00138  0.00040
    C19      X     0.00046 -0.00189 -0.04726 -0.00010 -0.00001 -0.00000
    C19      Y     0.00103 -0.00462 -0.07052 -0.00007  0.00003 -0.00000
    C19      Z     0.00002 -0.00008  0.02557  0.00016  0.00006 -0.00001
    C20      X    -0.00081  0.05896 -0.00334 -0.00003 -0.00000 -0.00001
    C20      Y     0.00088 -0.05991  0.00197 -0.00005 -0.00012 -0.00001
    C20      Z    -0.00038  0.02991 -0.00227  0.00007  0.00003 -0.00004
    C21      X    -0.06397 -0.00096 -0.00070 -0.00030  0.00002  0.00000
    C21      Y     0.03281  0.00046  0.00048  0.00046 -0.00003 -0.00001
    C21      Z    -0.05195 -0.00080 -0.00048 -0.00006  0.00001  0.00002
    C22      X    -0.00192  0.00031 -0.00004 -0.00018 -0.00000  0.00004
    C22      Y    -0.00187  0.00020 -0.00000 -0.00009  0.00001  0.00001
    C22      Z     0.00064 -0.00057  0.00016  0.00027  0.00003  0.00002
    H23      X     0.00059 -0.00299 -0.03714 -0.00004  0.00001  0.00001
    H23      Y    -0.00906  0.04313  0.53367  0.00031 -0.00032 -0.00003
    H23      Z    -0.00211  0.01000  0.12935  0.00007 -0.00010  0.00003
    H24      X     0.00018 -0.01599  0.00205 -0.00007  0.00018  0.00011
    H24      Y     0.00070 -0.05521  0.00384 -0.00055 -0.00038  0.00008
    H24      Z     0.00206 -0.17532  0.01403 -0.00103 -0.00026 -0.00003
    H25      X    -0.03233 -0.00044 -0.00051 -0.00024 -0.00010 -0.00005
    H25      Y    -0.14803 -0.00190 -0.00263 -0.00282 -0.00004 -0.00014
    H25      Z    -0.02456 -0.00034 -0.00035 -0.00046  0.00006 -0.00008
    H26      X     0.00221  0.00123 -0.00030 -0.00038 -0.00014 -0.00015
    H26      Y     0.00044  0.00050 -0.00020 -0.00024  0.00000  0.00022
    H26      Z     0.00586  0.00347 -0.00103 -0.00110 -0.00033 -0.00027
    H27      X     0.02071 -0.00459  0.00094  0.00263  0.00017 -0.00016
    H27      Y     0.00579 -0.00151  0.00031  0.00089  0.00002 -0.00002
    H27      Z    -0.01644  0.00363 -0.00074 -0.00215 -0.00010  0.00010
    H28      X     0.00425 -0.00033 -0.00003  0.00004 -0.00001 -0.00013
    H28      Y     0.01459 -0.00134 -0.00012  0.00111 -0.00011 -0.00019
    H28      Z     0.00197 -0.00031  0.00002  0.00016 -0.00006 -0.00013
    H29      X     0.15050  0.00231  0.00128  0.00004 -0.00002  0.00005
    H29      Y     0.12321  0.00189  0.00111  0.00015 -0.00001  0.00019
    H29      Z     0.51684  0.00803  0.00454  0.00049 -0.00024 -0.00026
    H30      X     0.64508  0.00956  0.00759  0.00392 -0.00016  0.00010
    H30      Y    -0.36767 -0.00546 -0.00429 -0.00212  0.00009  0.00002
    H30      Z     0.13017  0.00192  0.00154  0.00081 -0.00004 -0.00001
    H31      X    -0.00597  0.02096  0.60669  0.00110 -0.00000  0.00004
    H31      Y    -0.00334  0.01240  0.33746  0.00069  0.00001  0.00002
    H31      Z     0.00309 -0.01170 -0.30343 -0.00057  0.00000  0.00001
    H32      X     0.00008 -0.00075 -0.00685  0.00011  0.00013 -0.00006
    H32      Y     0.00003 -0.00051 -0.02822 -0.00016 -0.00007  0.00001
    H32      Z    -0.00122  0.00303 -0.13290 -0.00114 -0.00032 -0.00005
    H33      X    -0.00003  0.00199  0.00034  0.00041  0.00048  0.00000
    H33      Y    -0.00749  0.50101 -0.01136  0.00190  0.00255 -0.00001
    H33      Z    -0.00082  0.05506 -0.00151  0.00123  0.00141  0.00005
    H34      X     0.00953 -0.69018  0.04186  0.00070  0.00021 -0.00013
    H34      Y    -0.00372  0.27012 -0.01590 -0.00007  0.00007  0.00004
    H34      Z     0.00328 -0.23774  0.01357  0.00045  0.00009  0.00000
    H35      X     0.00075 -0.00224  0.00137 -0.00004 -0.00002  0.00001
    H35      Y     0.00008 -0.00085  0.00065  0.00000  0.00003 -0.00012
    H35      Z     0.00201 -0.00499  0.00419 -0.00003 -0.00012 -0.00003
    H36      X     0.00329 -0.01251  0.00233 -0.00016 -0.00008  0.00001
    H36      Y    -0.00077  0.00472  0.00003  0.00008  0.00003  0.00000
    H36      Z    -0.00046  0.00047  0.00018  0.00000 -0.00002  0.00002
    H37      X     0.00073 -0.00012  0.00075  0.00015  0.00002 -0.00002
    H37      Y    -0.00615  0.00165 -0.00547 -0.00087 -0.00009 -0.00007
    H37      Z    -0.00131  0.00023 -0.00106  0.00004  0.00005 -0.00006
    H38      X     0.01435 -0.00204  0.01345  0.00059 -0.00004  0.00002
    H38      Y    -0.00288  0.00018 -0.00238 -0.00008  0.00000  0.00001
    H38      Z     0.00160  0.00015  0.00010  0.00009 -0.00000  0.00001
  
  Number of imaginary frequencies:   1
   
  Writing vibrational animation data to 2DMPEConformation1fromJCTCSI_isomer1.vib
  Writing vibrational spectrum data to 2DMPEConformation1fromJCTCSI_isomer1_vib.spm
  rotational symmetry number:  1

  rotational temperatures (K):      0.021329      0.017540      0.014643
   
    1 vibrational frequencies below  10.0 cm-1 not included in zero-point
  energy or thermochemical analysis.  Set freqcut to change the frequency
  cutoff value.

  vibrational temperatures:
       mode:      2        3        4        5        6        7
  temp. (K):    45.47    96.51   116.29   133.14   169.81   171.90
   
       mode:      8        9       10       11       12       13
  temp. (K):   189.61   217.59   239.91   253.63   263.88   277.08
   
       mode:     14       15       16       17       18       19
  temp. (K):   284.26   302.21   308.39   317.50   335.30   337.56
   
       mode:     20       21       22       23       24       25
  temp. (K):   364.91   383.50   388.96   408.64   442.97   470.44
   
       mode:     26       27       28       29       30       31
  temp. (K):   487.15   520.50   550.94   624.97   639.59   694.36
   
       mode:     32       33       34       35       36       37
  temp. (K):   819.27   830.50   861.38   905.99   925.08   952.09
   
       mode:     38       39       40       41       42       43
  temp. (K):  1001.22  1025.17  1032.51  1057.31  1067.47  1074.13
   
       mode:     44       45       46       47       48       49
  temp. (K):  1166.11  1194.67  1201.43  1252.18  1269.08  1276.16
   
       mode:     50       51       52       53       54       55
  temp. (K):  1295.56  1340.38  1346.15  1366.27  1392.63  1415.51
   
       mode:     56       57       58       59       60       61
  temp. (K):  1423.20  1453.14  1466.03  1501.79  1614.54  1624.66
   
       mode:     62       63       64       65       66       67
  temp. (K):  1692.87  1728.33  1832.39  1859.11  1895.79  1934.81
   
       mode:     68       69       70       71       72       73
  temp. (K):  1935.61  1953.89  1958.28  1961.29  2013.60  2099.50
   
       mode:     74       75       76       77       78       79
  temp. (K):  2102.06  2111.77  2113.46  2119.28  2122.59  2124.78
   
       mode:     80       81       82       83       84       85
  temp. (K):  2127.93  2135.09  2137.25  2154.16  2202.62  2425.52
   
       mode:     86       87       88       89       90       91
  temp. (K):  2748.59  2990.08  3328.02  4397.43  4399.44  4402.40
   
       mode:     92       93       94       95       96       97
  temp. (K):  4404.73  4405.23  4408.49  4473.67  4485.23  4488.25
   
       mode:     98       99      100      101      102      103
  temp. (K):  4521.82  4522.93  4535.11  4535.71  4536.32  4545.45
   
       mode:    104      105      106      107      108
  temp. (K):  4545.92  4548.77  4560.36  4701.15  5160.93
   
   
  Thermodynamic properties calculated assuming an ideal gas

  In the table below, the units for temperature
  are kelvins, the units for U, H, and G are
  kJ/mol and the units for Cv and S are J/(mol K)

  The zero point energy (ZPE):    808.901 kJ/mol
  is not included in U, H, or G in the table below
  
 
  =============================================================================
  Thermodynamic properties for P =     1.00 atm, calculated at   1 temperatures


  T =   298.15 K, P =     1.00 atm
   
                  U         Cv          S          H          G        ln(Q)
              =========  =========  =========  =========  =========  =========
  trans.          3.718     12.472    181.841      6.197    -48.018   19.37042
  rot.            3.718     12.472    138.653      3.718    -37.621   15.17616
  vib.           48.660    310.511    301.883     48.660    -41.346   16.67884
  elec.           0.000      0.000      0.000      0.000      0.000    0.00000
  ----------------------------------------------------------------------------
  total          56.097    335.454    622.377     58.576   -126.986   51.22541
   
   Total internal energy, Utot(SCFE + ZPE + U):   -1370.789575 hartrees
              Total enthalpy, Htot (Utot + pV):   -1370.788630 hartrees
    Total Gibbs free energy, Gtot (Htot - T*S):   -1370.859307 hartrees
   
  Peak memory usage:   1703 Mb
  
  end of program freq
   
 Time(freq)  user:        1.4  user+sys:        1.4  wallclock:        2.3

 Total cpu seconds     user:    5331.668   user+sys:    5331.668
  
 Total elapsed time:    1665 seconds

Job 2DMPEConformation1fromJCTCSI_isomer1 completed on seskscpn104.prim.scp at Wed Oct 18 10:48:48 2023
