Job 3DMPEConformation2fromJCTCSI_isomer2 started on seskscpn115.prim.scp at Wed Oct 18 10:21:03 2023
jobid: seskscpn324-0-652fb167

  +--------------------------------------------------------------------+
  |  Jaguar version 10.6, release  12                                  |
  |                                                                    |
  |  Copyright Schrodinger, Inc.                                       |
  |  All Rights Reserved.                                              |
  |                                                                    |
  |  The following have contributed to Jaguar (listed alphabetically): |
  |  Mike Beachy, Art Bochevarov, Dale Braden, Yixiang Cao,            |
  |  Alan Chien, Chris Cortis, Rich Friesner, Bill Goddard,            |
  |  Hod Greeley, Tom Hughes, Leif Jacobson, Jean-Marc Langlois,       |
  |  Daniel Levine, Daniel Mainz, Rob Murphy, Dean Philipp,            |
  |  Tom Pollard, Murco Ringnalda, Mark Watson, Haoyu Yu.              |
  |                                                                    |
  |  Use of this program should be acknowledged in publications as:    |
  |                                                                    |
  |  Jaguar, version 10.6, Schrodinger, Inc., New York, NY, 2019.      |
  |                                                                    |
  |  A. D. Bochevarov, E. Harder, T. F. Hughes, J. R. Greenwood,       |
  |  D. A. Braden, D. M. Philipp, D. Rinaldo, M. D. Halls,             |
  |  J. Zhang, R. A. Friesner, "Jaguar: A High-Performance Quantum     |
  |  Chemistry Software Program with Strengths in Life and Materials   |
  |  Sciences", Int. J. Quantum Chem., 2013, 113(18), 2110-2142.       |
  +--------------------------------------------------------------------+
  
  start of program pre
  
  Job name: 3DMPEConformation2fromJCTCSI_isomer2
  Executables used: /opt/scp/software/schrodinger/2019-4/jaguar-v10.6/bin/Linux-x86_64
  Temporary files : /scratch/kzdq760/3DMPEConformation2fromJCTCSI_isomer2#seskscpn324-0-652fb167
  Maestro file (input):  3DMPEConformation2fromJCTCSI_isomer2.mae
  Maestro file (output): 3DMPEConformation2fromJCTCSI_isomer2.01.mae
  
 Contents of input file: &gen section only
 ----------------Contents start----------------
&gen
isymm=0
basis=LACVP**
gdftgrad=-13
gdftmed=-13
icanorb=1
molchg=1
gdftfine=-13
dftname=B3LYP
eunit=2
ifreq=1
ncanorb=350
iacc=1
&
 -----------------Contents end-----------------
 
  basis set:             lacvp**                         
  net molecular charge:    1
  multiplicity:            1
  
  keygrid settings 
    wispc.....   7.500E-01
    ldens.....   0
    denspc....   7.500E-01
  
   grid     daf set  nls  grid set  Q type
  ------    -------  ---  --------  ------
  coarse       1      1       1        1
  medium       2      2       2        1
  fine         3      2       3        0
  ultrafine    4      2       4        1
  charge       0      1       0        1
  gradient     5      2       4        1
  density      0      1       0        0
  DFT-fine     0      1     -13        0
  DFT-med.     0      1     -13        0
  DFT-grad     0      1     -13        0
  DFT-der2     0      1      -8        0
  DFT-cphf     0      1      -9        0
  LMP2-enrg    4      2       4        1
  LMP2-grad    5      2       2        1
  DFT-cphf2    0      1     -15        0
  PBF-dens     0      1       0        0
  plotting     0      1       0        0
  Rel-grad     0      1     -17        0
  
  idftgrdm  100
  ndftgrdm   50    0    0
  idftgrdf  111
  ndftgrdf   85    0    0
  idftgrdg  111
  ndftgrdg   80    3    0
  idftgrdu  433
  ndftgrdu  105    0    0
  idftgrdd  433
  ndftgrdd  105    0    0
  idftgrdc  433
  ndftgrdc   26    0    0
  idftgrdp  433
  ndftgrdp   18    0    0
  
  Using up to   4 threads per process
  
  This run will use ECP on 1 atom
  number of basis functions....          350
  
 Input geometry:
                                   angstroms
  atom               x                 y                 z
  Rh1           0.0000000000      0.0000000000      0.0000000000 
  O2            0.0000000000      0.0000000000      2.2227800000 
  C3            1.1331900000      0.0000000000      2.7375400000 
  N4            2.2643300000      0.0769200000      2.0185900000 
  C5            2.2166700000      0.3100500000      0.5955900000 
  C6            1.6964300000      1.5544400000      0.1405400000 
  C7            3.0473200000     -0.5279900000     -0.2054000000 
  N8            3.7150700000     -1.2333500000     -0.8513700000 
  H9            1.5690600000      2.3377400000      0.8817500000 
  H10           1.9733700000      1.9001600000     -0.8488400000 
  H11           3.1600500000      0.0657000000      2.4942400000 
  H12           1.2566200000     -0.0682900000      3.8242900000 
  P13          -0.2879200000     -0.1221800000     -2.2584600000 
  P14          -0.3121500000     -2.3628700000      0.0051000000 
  C15          -1.0832500000     -1.7614500000     -2.6211200000 
  C16          -0.4484800000     -2.8785500000     -1.7787200000 
  H17          -1.5584700000      0.1158600000     -0.0981500000 
  H18           0.0229600000      1.6326800000     -0.0906700000 
  C19          -1.3756700000      1.1375100000     -3.0249200000 
  C20           1.2473400000     -0.0830300000     -3.2697500000 
  C21          -1.8733100000     -2.8806600000      0.8227800000 
  C22           0.9721800000     -3.4721600000      0.7131400000 
  H23          -0.9307300000      2.1278700000     -2.8981500000 
  H24           1.0044100000     -0.2766100000     -4.3194800000 
  H25          -2.0010400000     -3.9664300000      0.7802000000 
  H26           1.0419000000     -3.3071200000      1.7917200000 
  H27           1.9420700000     -3.2540300000      0.2586900000 
  H28           0.7166200000     -4.5216500000      0.5369200000 
  H29          -1.8482000000     -2.5594500000      1.8675100000 
  H30          -2.7237100000     -2.3920900000      0.3414500000 
  H31          -2.3486800000      1.1329600000     -2.5291300000 
  H32          -1.5025900000      0.9378600000     -4.0932700000 
  H33           1.7139700000      0.9036700000     -3.2017100000 
  H34           1.9663500000     -0.8255100000     -2.9165300000 
  H35          -2.1471000000     -1.6506500000     -2.3839200000 
  H36          -1.0082000000     -1.9779700000     -3.6925600000 
  H37           0.5697400000     -3.0899300000     -2.1243900000 
  H38          -1.0184700000     -3.8097200000     -1.8651800000 
   
  principal moments of inertia:
        amu*angstrom^2:     1129.83685     1408.06407     1655.09704
                g*cm^2: 1.87613799E-37 2.33814511E-37 2.74835295E-37
   
  rotational constants:
               cm^(-1):      0.01492041      0.01197220      0.01018528
                   GHz:      0.44730264      0.35891762      0.30534705
   
  Molecular weight:     351.03 amu
   
  Stoichiometry: RhC10P2N2H22O
  Molecular Point Group: C1      
  Point Group used: C1 (symmetry turned off)
  
  nuclear repulsion energy.......    1745.114444720 hartrees
  
  Detected an organometallic with only one TM atom. 
  
  Oxidation state on metal       1 is     3
  Formal multiplet on metal      1 is     1
  Formal charge on ligand        4 is    -1
  Formal multiplet on ligand     4 is     1
  Formal charge on ligand        5 is    -1
  Formal multiplet on ligand     5 is     1
  
 
  Will use High-Quality Initial guess for organometallics
       including d-d repulsion (iguess=30)
 
 Non-default options chosen:
   SCF calculation type: DFT(b3lyp)                  
   DFT=Becke_3_Parameter/HF+Slater+Becke88+VWN+LYP (B3LYP)
   Vibrational frequencies and related properties will be computed
      from analytic second derivatives
   IR intensities will be computed
   Thermochemical properties will be computed
   Thermochemical data will be printed in Joules
   Molecular symmetry not used
   Highest accuracy cutoffs used in SCF
  
 Temporary integer options set:
     21= -1  73=  2
  
   Fixing number of canonical orbitals to remain constant.
   Number of canonical orbitals to use:   350
  
  Peak memory usage:   1466 Mb
  
  end of program pre
   
 Time(pre)  user:        2.5  user+sys:        2.5  wallclock:        1.7
  
  start of program onee
  
  smallest eigenvalue of S:    1.092E-03
  Set cut 20/10 to   1.091484483349917E-003
  number of canonical orbitals.....          350
  Peak memory usage:   1504 Mb
  
  end of program onee
   
 Time(onee)  user:        2.1  user+sys:        2.1  wallclock:        0.7
  
  start of program hfig
  
  initial wavefunction generated automatically from atomic wavefunctions
  Only one state below 0.010000
  Skip d-d repulsion considerations 
 
  Irreducible     Total no   No of occupied orbitals 
  representation  orbitals   Shell_1  Shell_2    ...
  No Symm          350         75
  ------------------------
  Orbital occupation/shell    1.000
 
  Peak memory usage:   1425 Mb
  
  end of program hfig
   
 Time(hfig)  user:        1.2  user+sys:        1.2  wallclock:        0.5
  
  start of program probe
  
  Peak memory usage:   1422 Mb
  
  end of program probe
   
 Time(probe)  user:        1.0  user+sys:        1.0  wallclock:        0.3
  
  start of program grid
  
   grid     grid set  grid #  grid sym
  ------    --------  ------  --------
  coarse        0        0        1
  medium        2        1        1
  fine          0        0        1
  ultrafine     4        2        1
  charge        0        0        1
  gradient      4        2        1
  density       0        0        1
  DFT-fine    -13        3        1
  DFT-med.    -13        3        1
  DFT-grad    -13        3        1
  DFT-der2     -8        4        1
  DFT-cphf     -9        5        1
  LMP2-enrg     4        2        1
  LMP2-grad     2        1        1
  DFT-cphf2   -15        6        1
  PBF-dens      0        0        1
  plotting      0        0        1
  Rel-grad    -17        0        1
  
  number of gridpoints: 
     atom       Rh1       O2       C3       N4       C5       C6       C7
  grid # 1      299      116       83      102       92       82      101
  grid # 2      232      486      296      337      359      266      390
  grid # 3    35544    23820    15816    16030    15816    15816    15816
  grid # 4    32864    23252    13988    14170    13988    13988    13988
  grid # 5     1144      774      748      756      748      748      748
  grid # 6     2168      416      394      406      394      394      394
   
  number of gridpoints: 
     atom        N8       H9      H10      H11      H12      P13      P14
  grid # 1      122      112      110      116      117      604      610
  grid # 2      491      453      446      450      467      422      430
  grid # 3    16030    17074    17074    17074    17074    24032    24032
  grid # 4    14170    15058    15058    15058    15058    23016    23016
  grid # 5      756      786      786      786      786      722      722
  grid # 6      406      420      420      420      420      370      370
   
  number of gridpoints: 
     atom       C15      C16      H17      H18      C19      C20      C21
  grid # 1       81       81      101      103       76       76       76
  grid # 2      299      300      464      449      255      254      253
  grid # 3    15816    15816    17074    17074    15816    15816    15816
  grid # 4    13988    13988    15058    15058    13988    13988    13988
  grid # 5      748      748      786      786      748      748      748
  grid # 6      394      394      420      420      394      394      394
   
  number of gridpoints: 
     atom       C22      H23      H24      H25      H26      H27      H28
  grid # 1       74      106      104      106      106      104      106
  grid # 2      258      454      452      454      455      448      454
  grid # 3    15816    17074    17074    17074    17074    17074    17074
  grid # 4    13988    15058    15058    15058    15058    15058    15058
  grid # 5      748      786      786      786      786      786      786
  grid # 6      394      420      420      420      420      420      420
   
  number of gridpoints: 
     atom       H29      H30      H31      H32      H33      H34      H35
  grid # 1      103      103      103      106      105      101      104
  grid # 2      453      447      454      456      448      440      446
  grid # 3    17074    17074    17074    17074    17074    17074    17074
  grid # 4    15058    15058    15058    15058    15058    15058    15058
  grid # 5      786      786      786      786      786      786      786
  grid # 6      420      420      420      420      420      420      420
   
  number of gridpoints: 
     atom       H36      H37      H38    total
  grid # 1      107      104      107     5009
  grid # 2      452      445      451    15266
  grid # 3    17074    17074    17074   673276
  grid # 4    15058    15058    15058   601644
  grid # 5      786      786      786    29646
  grid # 6      420      420      420    17316
   
  Peak memory usage:   1451 Mb
  
  end of program grid
   
 Time(grid)  user:       34.1  user+sys:       34.1  wallclock:        9.2
  
  start of program rwr
  
  Peak memory usage:   1419 Mb
  
  end of program rwr
   
 Time(rwr)  user:       10.8  user+sys:       10.8  wallclock:        4.0
  
  start of program scf
  
 number of electrons..........        150
 number of alpha electrons....         75
 number of beta electrons.....         75
 number of orbitals, total....        350
 number of doubly-occ'd orbs..         75
 number of open shell orbs....          0
 number of occupied orbitals..         75
 number of virtual orbitals...        275
 number of hamiltonians.......          1
 number of shells.............          1
 SCF type: DFT=Becke_3_Parameter/HF+Slater+Becke88+VWN+LYP (B3LYP)
 Energy computed with NOPS off.
 Convergence Criterion:
    Energy (econv):       1.00E-05
    RMS density (dconv):  5.00E-06
  
       i  u  d  i  g                   
       t  p  i  c  r                                 RMS    maximum
       e  d  i  u  i                       energy  density   DIIS  
       r  t  s  t  d       total energy    change  change    error 
  
etot    1  N  N  1  U   -1367.39052299715           4.7E-03  1.0E-01
etot    2  N  Y  1  U   -1370.05923396001  2.7E+00  4.6E-03  5.8E-02
etot    3  N  Y  1  U   -1370.40745284443  3.5E-01  2.8E-03  9.6E-02
etot    4  N  Y  1  U   -1370.91051697927  5.0E-01  1.7E-03  4.2E-02
etot    5  N  Y  1  U   -1371.07794782492  1.7E-01  7.1E-04  1.8E-02
etot    6  N  Y  1  U   -1371.11565032206  3.8E-02  1.9E-04  5.7E-03
etot    7  N  Y  1  U   -1371.11816498530  2.5E-03  7.6E-05  3.5E-03
etot    8  N  Y  1  U   -1371.11902948083  8.6E-04  2.4E-05  6.8E-04
etot    9  N  Y  1  U   -1371.11907764373  4.8E-05  8.6E-06  1.3E-04
etot   10  N  Y  1  U   -1371.11908196794  4.3E-06  3.9E-06  7.6E-05
etot   11  N  N  1  U   -1371.11908310660  1.1E-06  0.0E+00  0.0E+00
  
  
 Energy components, in hartrees:
   (A)  Nuclear repulsion............    1745.11444471970
   (E)  Total one-electron terms.....   -5373.47222954796
   (I)  Total two-electron terms.....    2257.23870172166
   (J)    Coulomb....................    2399.76988206998
   (K)    Exchange+Correlation.......    -142.53118034832
   (L)  Electronic energy............   -3116.23352782630  (E+I)
   (N)  Total energy.................   -1371.11908310660  (A+L)
   (O)  Gas phase energy.............   -1371.11908310660
  
 SCFE: SCF energy: DFT(b3lyp)     -1371.11908310660 hartrees   iterations:  11
  
 
 HOMO energy:    -0.35568
 LUMO energy:    -0.18037
 
  Orbital energies (hartrees): 
   -77.25269   -77.23408   -19.29724   -14.52751   -14.45138   -10.44203
   -10.39505   -10.37066   -10.34686   -10.33467   -10.33148   -10.31704
   -10.31613   -10.31140   -10.30918    -6.73002    -6.71298    -4.89148
    -4.89126    -4.88994    -4.87465    -4.87427    -4.87212    -3.27235
    -2.07989    -2.07265    -2.06339    -1.20256    -1.09245    -1.01856
    -0.94063    -0.93253    -0.89716    -0.86616    -0.83234    -0.82497
    -0.81738    -0.77586    -0.75225    -0.72621    -0.70251    -0.66784
    -0.65889    -0.62530    -0.60109    -0.59087    -0.58863    -0.58001
    -0.56597    -0.56350    -0.55912    -0.55618    -0.54909    -0.54441
    -0.54178    -0.53859    -0.53355    -0.52807    -0.51289    -0.50587
    -0.48669    -0.48396    -0.47903    -0.47597    -0.47001    -0.46478
    -0.45853    -0.45675    -0.44421    -0.42623    -0.42172    -0.41216
    -0.40432    -0.39463    -0.35568    -0.18037    -0.16793    -0.14040
    -0.11875    -0.09878    -0.09335    -0.08503    -0.07520    -0.07245
    -0.06172
 
  Peak memory usage:   2061 Mb
  
  end of program scf
   
 Time(scf)  user:      271.5  user+sys:      271.5  wallclock:       77.2
  
  start of program cutabab2
  
  Peak memory usage:   1559 Mb
  
  end of program cutabab2
   
 Time(cutabab2)  user:        1.0  user+sys:        1.0  wallclock:        0.7
  
  start of program der2a
  
  Peak memory usage:   1802 Mb
  
  end of program der2a
   
 Time(der2a)  user:       16.4  user+sys:       16.4  wallclock:        4.5
  
  start of program der2b
  
  Peak memory usage:   2198 Mb
  
  end of program der2b
   
 Time(der2b)  user:     1080.5  user+sys:     1080.5  wallclock:      272.2
  
  start of program der2nda
  
 
  Peak memory usage:    974 Mb
  
  end of program der2nda
   
 Time(der2nda)  user:        7.6  user+sys:        7.6  wallclock:        7.8
  
  start of program der2ndb
  
  Peak memory usage:   1864 Mb
  
  end of program der2ndb
   
 Time(der2ndb)  user:     1851.7  user+sys:     1851.7  wallclock:      473.1
  
  start of program rwr
  
  Peak memory usage:   1419 Mb
  
  end of program rwr
   
 Time(rwr)  user:       10.8  user+sys:       10.8  wallclock:        4.6
  
  start of program cphfa
  
       5  vectors produced in CPHF
  
     v    i  j  k  i  g
     e    t  c  c  c  r
     c    e  o  o  u  i
     t    r  r  r  t  d       RMS  
  
     1    1  5  2  6  M     7.3E-03
     1    2  5  2  6  M     6.5E-04
     1    3  0  0  6  M     3.3E-04
     1    4  0  0  6  M     1.4E-04
     1    5  0  0  6  M     5.5E-05
     1    6  0  0  6  M     2.3E-05
  
     v    i  j  k  i  g
     e    t  c  c  c  r
     c    e  o  o  u  i
     t    r  r  r  t  d       RMS  
  
     2    1  5  2  6  M     7.0E-03
     2    2  5  2  6  M     7.8E-04
     2    3  0  0  6  M     3.1E-04
     2    4  0  0  6  M     1.4E-04
     2    5  0  0  6  M     6.7E-05
     2    6  0  0  6  M     2.9E-05
  
     v    i  j  k  i  g
     e    t  c  c  c  r
     c    e  o  o  u  i
     t    r  r  r  t  d       RMS  
  
     3    1  5  2  6  M     7.5E-03
     3    2  5  2  6  M     5.6E-04
     3    3  0  0  6  M     3.3E-04
     3    4  0  0  6  M     1.1E-04
     3    5  0  0  6  M     6.6E-05
     3    6  0  0  6  M     2.3E-05
  
     v    i  j  k  i  g
     e    t  c  c  c  r
     c    e  o  o  u  i
     t    r  r  r  t  d       RMS  
  
     4    1  5  2  6  M     7.2E-03
     4    2  5  2  6  M     5.1E-04
     4    3  0  0  6  M     2.4E-04
     4    4  0  0  6  M     8.9E-05
     4    5  0  0  6  M     4.8E-05
  
     v    i  j  k  i  g
     e    t  c  c  c  r
     c    e  o  o  u  i
     t    r  r  r  t  d       RMS  
  
     5    1  5  2  6  M     7.4E-03
     5    2  5  2  6  M     4.6E-04
     5    3  0  0  6  M     2.4E-04
     5    4  0  0  6  M     1.2E-04
     5    5  0  0  6  M     5.6E-05
     5    6  0  0  6  M     2.0E-05
  
  
  Atomic Polar Tensors (au): Total
  =========================
  
  APT for atom Rh1     
  --------------------------------------
       -0.5777       0.0855      -0.0144
        0.2904      -0.4601       0.1278
        0.0398       0.0618      -0.1637
  --------------------------------------
  
  APT for atom O2      
  --------------------------------------
       -0.8341      -0.0415      -0.2744
       -0.0205      -0.1453      -0.0548
       -0.3619      -0.0050      -1.0205
  --------------------------------------
  
  APT for atom C3      
  --------------------------------------
        1.3411       0.0367       0.2184
        0.0956       0.2092      -0.0007
       -0.0563      -0.0015       0.6579
  --------------------------------------
  
  APT for atom N4      
  --------------------------------------
       -0.6678       0.0505       0.0268
        0.0457      -0.3386      -0.0182
        0.3131       0.0082      -0.3851
  --------------------------------------
  
  APT for atom C5      
  --------------------------------------
       -0.4013      -0.2192      -0.0502
        0.3457       0.3226       0.0358
       -0.0468      -0.0414       0.4866
  --------------------------------------
  
  APT for atom C6      
  --------------------------------------
        0.7399       0.2521       0.2046
       -0.1712       0.0726       0.0015
        0.2013      -0.0335       0.0742
  --------------------------------------
  
  APT for atom C7      
  --------------------------------------
        0.5124      -0.0436      -0.0598
       -0.2955       0.0553       0.0342
       -0.3378       0.0550      -0.0493
  --------------------------------------
  
  APT for atom N8      
  --------------------------------------
       -0.4782      -0.0091      -0.0095
        0.1543      -0.2552       0.0155
        0.1479       0.0169      -0.2513
  --------------------------------------
  
  APT for atom H9      
  --------------------------------------
       -0.0191      -0.0976      -0.0165
       -0.0260       0.0652      -0.0178
       -0.0015      -0.0199       0.0410
  --------------------------------------
  
  APT for atom H10     
  --------------------------------------
        0.0425      -0.0367      -0.0128
       -0.0309       0.0660      -0.0144
        0.0099       0.0004       0.0037
  --------------------------------------
  
  APT for atom H11     
  --------------------------------------
        0.2815       0.0067       0.0606
       -0.0431       0.2915       0.0217
        0.0112       0.0218       0.1366
  --------------------------------------
  
  APT for atom H12     
  --------------------------------------
        0.0567      -0.0036      -0.1125
       -0.0116       0.0917       0.0176
       -0.0439      -0.0015      -0.0536
  --------------------------------------
  
  APT for atom P13     
  --------------------------------------
        0.9190      -0.0662       0.1319
       -0.0109       1.0201      -0.0781
        0.2229      -0.2167       1.4095
  --------------------------------------
  
  APT for atom P14     
  --------------------------------------
        1.0580       0.1756       0.0451
        0.2001       1.1328      -0.1798
        0.0848       0.0080       0.8926
  --------------------------------------
  
  APT for atom C15     
  --------------------------------------
       -0.1092       0.0301       0.0370
       -0.0046      -0.0598      -0.0365
       -0.1274       0.0637      -0.3073
  --------------------------------------
  
  APT for atom C16     
  --------------------------------------
       -0.1465      -0.1287       0.0012
       -0.0148      -0.2822       0.0065
        0.0372       0.0094      -0.0728
  --------------------------------------
  
  APT for atom H17     
  --------------------------------------
       -0.3584      -0.0088      -0.0629
        0.0041       0.1305       0.0093
        0.0240      -0.0167       0.1032
  --------------------------------------
  
  APT for atom H18     
  --------------------------------------
       -0.0631       0.0306      -0.0104
       -0.2301      -0.2801      -0.0319
        0.0304       0.0034       0.1346
  --------------------------------------
  
  APT for atom C19     
  --------------------------------------
       -0.2020       0.0071       0.0178
        0.0021      -0.2219      -0.0170
       -0.0988       0.0737      -0.3355
  --------------------------------------
  
  APT for atom C20     
  --------------------------------------
       -0.2488       0.0302      -0.1050
        0.0357      -0.2198      -0.0093
       -0.0142       0.0662      -0.4363
  --------------------------------------
  
  APT for atom C21     
  --------------------------------------
       -0.2061       0.0260       0.0147
       -0.1340      -0.3255       0.0807
       -0.0155      -0.0065      -0.2003
  --------------------------------------
  
  APT for atom C22     
  --------------------------------------
       -0.2819      -0.1160       0.0208
       -0.0872      -0.4066       0.0680
       -0.0221      -0.0277      -0.1872
  --------------------------------------
  
  APT for atom H23     
  --------------------------------------
        0.0589      -0.0257      -0.0182
       -0.0434      -0.0064      -0.0109
       -0.0132      -0.0073       0.0874
  --------------------------------------
  
  APT for atom H24     
  --------------------------------------
        0.0701      -0.0207       0.0616
       -0.0119       0.0948      -0.0171
       -0.0250      -0.0131      -0.0593
  --------------------------------------
  
  APT for atom H25     
  --------------------------------------
        0.0175      -0.0914       0.0436
       -0.0320      -0.0523       0.0015
        0.0367       0.0218       0.0693
  --------------------------------------
  
  APT for atom H26     
  --------------------------------------
        0.0652       0.0133      -0.0387
        0.0204       0.0812      -0.0212
       -0.0142      -0.0163      -0.0423
  --------------------------------------
  
  APT for atom H27     
  --------------------------------------
       -0.0009      -0.0129       0.0324
        0.0116       0.1156       0.0054
        0.0129       0.0007       0.0586
  --------------------------------------
  
  APT for atom H28     
  --------------------------------------
        0.0990       0.0622      -0.0311
       -0.0362      -0.0794      -0.0015
       -0.0004       0.0368       0.0802
  --------------------------------------
  
  APT for atom H29     
  --------------------------------------
        0.0865       0.0011       0.0089
       -0.0014       0.0889      -0.0162
       -0.0105      -0.0327      -0.0077
  --------------------------------------
  
  APT for atom H30     
  --------------------------------------
        0.0159       0.0503      -0.0444
        0.0401       0.0592       0.0322
       -0.0370       0.0194       0.0666
  --------------------------------------
  
  APT for atom H31     
  --------------------------------------
        0.0204      -0.0026       0.0498
       -0.0065       0.0854       0.0001
        0.0424       0.0143       0.0682
  --------------------------------------
  
  APT for atom H32     
  --------------------------------------
        0.0617       0.0322      -0.0654
        0.0402       0.0585       0.0337
       -0.0327      -0.0114      -0.0489
  --------------------------------------
  
  APT for atom H33     
  --------------------------------------
        0.0421      -0.0594       0.0065
       -0.0413      -0.0105      -0.0197
        0.0083      -0.0256       0.0966
  --------------------------------------
  
  APT for atom H34     
  --------------------------------------
        0.0392       0.0508      -0.0141
        0.0283       0.0442       0.0317
        0.0102       0.0086       0.1241
  --------------------------------------
  
  APT for atom H35     
  --------------------------------------
       -0.0323       0.0214       0.0156
       -0.0067       0.0190       0.0205
        0.0570       0.0029       0.0729
  --------------------------------------
  
  APT for atom H36     
  --------------------------------------
        0.0720       0.0059      -0.0402
       -0.0115       0.0238      -0.0325
       -0.0177       0.0033      -0.0713
  --------------------------------------
  
  APT for atom H37     
  --------------------------------------
       -0.0300       0.0430       0.0115
        0.0042       0.0778       0.0245
        0.0417       0.0112       0.0058
  --------------------------------------
  
  APT for atom H38     
  --------------------------------------
        0.0577      -0.0278      -0.0282
       -0.0479      -0.0623       0.0094
       -0.0551      -0.0302       0.0224
  --------------------------------------
  
  Peak memory usage:   1910 Mb
  
  end of program cphfa
   
 Time(cphfa)  user:     3657.2  user+sys:     3657.2  wallclock:     1303.4
  
  start of program freq
  
   
  Number of frequencies: 108
  harmonic frequencies in cm**-1, reduced masses in amu,
  force constants in mDyne/A, and
  normal modes in cartesian coordinates:         108
  IR intensities in km/mol
  
  vibration #            1        2        3        4        5        6
                  -------- -------- -------- -------- -------- --------
  frequencies      -707.31    35.98    63.47    81.41    88.18   116.55
  intensities        22.15     0.17     3.65     5.94     4.05     2.92
  reduc. mass         0.76     0.86     2.66     1.60     1.75     1.63
  force const         0.22     0.00     0.01     0.01     0.01     0.01
    Rh1      X     0.00310 -0.00106  0.00361 -0.01100  0.01406 -0.02302
    Rh1      Y    -0.01515 -0.00474  0.00475  0.02023  0.00788  0.00760
    Rh1      Z     0.00175 -0.00351 -0.00487 -0.00236 -0.02221  0.00928
    O2       X    -0.00156 -0.01589 -0.02085 -0.02654 -0.03041  0.00427
    O2       Y    -0.00055 -0.01304  0.04320 -0.01324 -0.01771  0.08356
    O2       Z    -0.00167 -0.00340 -0.00578  0.00111 -0.02186  0.00296
    C3       X     0.00351 -0.01949 -0.02828 -0.02429 -0.04042  0.01142
    C3       Y     0.00010  0.00072  0.05304 -0.06901 -0.05796  0.02708
    C3       Z    -0.00038  0.00475  0.00881 -0.00334  0.00043 -0.01182
    N4       X    -0.00270 -0.01546 -0.01835 -0.02454 -0.02580  0.00589
    N4       Y     0.00485  0.01785  0.02909 -0.08934 -0.06820 -0.06125
    N4       Z    -0.00412  0.01327  0.02066 -0.00678  0.02336 -0.02945
    C5       X    -0.03263 -0.00739 -0.00003 -0.02495  0.01021 -0.00127
    C5       Y    -0.01766  0.01919 -0.01392 -0.03422 -0.03295 -0.05903
    C5       Z    -0.00847  0.01308  0.01283  0.00172  0.02677 -0.02928
    C6       X    -0.06358 -0.01936  0.03151 -0.00081  0.03483  0.01569
    C6       Y     0.05085  0.01315 -0.01602 -0.00660 -0.01817 -0.04462
    C6       Z    -0.00781  0.01098 -0.02817  0.04301  0.03889 -0.01945
    C7       X    -0.00311  0.01327 -0.02846 -0.05419  0.05610  0.04898
    C7       Y     0.01137  0.03372 -0.07375 -0.02519  0.00030 -0.02359
    C7       Z     0.00059  0.01958  0.04585 -0.03827  0.03828 -0.01551
    N8       X    -0.00234  0.03194 -0.05568 -0.09180  0.10807  0.11254
    N8       Y     0.00330  0.04579 -0.13568 -0.01839  0.03350  0.01503
    N8       Z     0.00276  0.02585  0.08498 -0.08467  0.05617  0.00810
    H9       X     0.21496 -0.03492  0.05335  0.00593  0.01734  0.04137
    H9       Y     0.07624  0.01093  0.01066 -0.03226 -0.03224 -0.04473
    H9       Z     0.02459  0.01062 -0.05257  0.07137  0.05072 -0.01461
    H10      X     0.09754 -0.01737  0.04075  0.01634  0.06814  0.02351
    H10      Y     0.05757  0.01744 -0.05428  0.02612 -0.00270 -0.04464
    H10      Z     0.03392  0.01295 -0.03896  0.05917  0.05351 -0.01731
    H11      X    -0.00107 -0.01875 -0.02413 -0.02336 -0.03499  0.01178
    H11      Y     0.00343  0.02710  0.03466 -0.12132 -0.10033 -0.09625
    H11      Z    -0.00594  0.01971  0.03160 -0.00965  0.03998 -0.04128
    H12      X    -0.00054 -0.02642 -0.04205 -0.02176 -0.06254  0.02146
    H12      Y     0.00343 -0.00068  0.08268 -0.10531 -0.08838  0.04511
    H12      Z    -0.00012  0.00545  0.01228 -0.00588  0.00101 -0.01195
    P13      X    -0.00148  0.00640 -0.01917  0.02018 -0.02585 -0.01586
    P13      Y    -0.00139 -0.00633  0.01316  0.00148 -0.00027  0.00480
    P13      Z     0.00047 -0.00324 -0.00165 -0.00657 -0.01619  0.00948
    P14      X    -0.00720  0.00339  0.03152  0.02023  0.00213 -0.02069
    P14      Y     0.00915 -0.00588 -0.00145  0.02368  0.01774  0.00399
    P14      Z    -0.00156 -0.01036 -0.01298  0.01723  0.00507  0.00312
    C15      X    -0.00080 -0.07446 -0.01165  0.02416 -0.01486 -0.01526
    C15      Y     0.00022  0.03023  0.01034 -0.00491 -0.01350  0.00774
    C15      Z    -0.00121  0.01366 -0.00160  0.00864  0.00492  0.00648
    C16      X     0.00125 -0.09663  0.00875  0.01906 -0.02030  0.01419
    C16      Y     0.00338  0.00182  0.01153  0.00307 -0.00825  0.01590
    C16      Z     0.00011 -0.00694 -0.01595  0.02379  0.01540 -0.00400
    H17      X    -0.00015 -0.00182  0.00480 -0.01145  0.01675 -0.02305
    H17      Y     0.13375 -0.01586  0.00753  0.02329  0.02869  0.03924
    H17      Z    -0.03376 -0.01285 -0.00651 -0.02342 -0.02437  0.02273
    H18      X     0.86679 -0.02336  0.04324  0.00907  0.04045  0.02866
    H18      Y     0.12633 -0.00570  0.00808  0.02442  0.00798  0.00610
    H18      Z     0.08387  0.00316 -0.01253  0.00366 -0.02163 -0.01094
    C19      X     0.00015  0.07496 -0.03697  0.03012 -0.07908  0.02064
    C19      Y     0.00070  0.04218  0.01068 -0.01026 -0.03426  0.02052
    C19      Z    -0.00005 -0.02018  0.01896 -0.03948  0.00156 -0.01520
    C20      X    -0.00054  0.01451 -0.02871  0.02760 -0.04715  0.00318
    C20      Y    -0.00012 -0.09597  0.03150 -0.01270  0.03510 -0.02803
    C20      Z    -0.00017  0.00577 -0.01620  0.00428 -0.04652  0.03721
    C21      X    -0.00060  0.04977  0.05860  0.04986  0.01275 -0.00693
    C21      Y     0.00212 -0.00650 -0.04149 -0.00219  0.05255 -0.10624
    C21      Z     0.00055  0.07743  0.01297  0.05509  0.04643 -0.03919
    C22      X     0.00124  0.04315  0.06519  0.06196  0.00648  0.02833
    C22      Y     0.01305 -0.01258  0.01070  0.07228  0.02659  0.06491
    C22      Z     0.00000 -0.09226 -0.05494  0.01808  0.01086  0.00923
    H23      X    -0.00129  0.12594 -0.04572  0.03116 -0.10751  0.03758
    H23      Y     0.00199  0.02045  0.01376 -0.00905 -0.01977  0.01233
    H23      Z    -0.00022 -0.02904  0.02540 -0.05235 -0.01287 -0.01032
    H24      X     0.00172  0.01306 -0.03303  0.02854 -0.05461  0.02066
    H24      Y     0.00127 -0.10218  0.02604 -0.00457  0.00998 -0.03336
    H24      Z    -0.00098  0.00721 -0.01417  0.00254 -0.04012  0.03414
    H25      X     0.00553  0.04721  0.07524  0.07694  0.00377  0.04997
    H25      Y     0.00135 -0.00645 -0.04273 -0.00622  0.05207 -0.11055
    H25      Z    -0.00194  0.08431 -0.00512  0.07753  0.08729 -0.10386
    H26      X     0.00026  0.09490  0.08427  0.08307  0.02294  0.02169
    H26      Y     0.00198 -0.03115 -0.00527  0.10275  0.05020  0.07858
    H26      Z     0.00126 -0.09274 -0.05369  0.01202  0.00616  0.00766
    H27      X     0.00232  0.02075  0.05238  0.04608  0.00161  0.01810
    H27      Y     0.00829  0.00116  0.03254  0.08035  0.01153  0.10601
    H27      Z    -0.00018 -0.13368 -0.07132 -0.01117 -0.00680  0.00734
    H28      X    -0.01443  0.04007  0.07710  0.08076 -0.00090  0.07878
    H28      Y     0.01873 -0.01084  0.00972  0.06181  0.02371  0.05096
    H28      Z    -0.01318 -0.09834 -0.06650  0.05332  0.03876  0.01978
    H29      X     0.00010  0.10897  0.07782  0.06424  0.03436 -0.03996
    H29      Y     0.00075 -0.00605 -0.06195  0.01803  0.09065 -0.16722
    H29      Z     0.00083  0.07582  0.01882  0.04855  0.03421 -0.01978
    H30      X    -0.00106  0.02314  0.03924  0.02766  0.00781 -0.02520
    H30      Y     0.00134 -0.00602 -0.04572 -0.03223  0.04212 -0.12338
    H30      Z     0.00121  0.12492  0.04281  0.06388  0.04457 -0.02455
    H31      X    -0.00058  0.07281 -0.03276  0.02431 -0.06795  0.01098
    H31      Y    -0.00115  0.09758 -0.00373  0.00079 -0.06260  0.04124
    H31      Z    -0.00194 -0.02387  0.02709 -0.05088  0.02318 -0.03389
    H32      X     0.00387  0.06873 -0.04409  0.04268 -0.09711  0.03762
    H32      Y     0.00413  0.03804  0.01991 -0.02927 -0.04379  0.01864
    H32      Z    -0.00136 -0.01866  0.01809 -0.03744  0.00543 -0.01683
    H33      X    -0.00020  0.06105 -0.04187  0.03907 -0.08248  0.01936
    H33      Y    -0.00011 -0.11715  0.03822 -0.01859  0.05338 -0.03573
    H33      Z     0.00143 -0.00656 -0.02217  0.01125 -0.06676  0.03626
    H34      X     0.00044 -0.02132 -0.01732  0.01740 -0.01589 -0.01491
    H34      Y     0.00192 -0.12197  0.04045 -0.02247  0.06522 -0.03670
    H34      Z     0.00282  0.02381 -0.01976  0.00341 -0.04509  0.05553
    H35      X    -0.00042 -0.06238 -0.00917  0.02284 -0.01522 -0.01327
    H35      Y    -0.00067  0.07632  0.00142 -0.00246 -0.01094 -0.00570
    H35      Z    -0.00039  0.04576  0.01371  0.00143  0.00265  0.02157
    H36      X     0.00032 -0.11436 -0.02458  0.03066 -0.01566 -0.02577
    H36      Y    -0.00274  0.02857  0.01671 -0.01735 -0.02441  0.01275
    H36      Z    -0.00033  0.01114 -0.00381  0.01158  0.00706  0.00476
    H37      X     0.00132 -0.12192  0.00574  0.01936 -0.02510  0.02205
    H37      Y     0.00226 -0.05058  0.02166 -0.00330 -0.02391  0.05018
    H37      Z     0.00152 -0.04912 -0.03098  0.02869  0.01065 -0.00151
    H38      X     0.00202 -0.14579  0.01557  0.01717 -0.03093  0.04254
    H38      Y     0.00184  0.02965  0.00712  0.00345 -0.00338 -0.00013
    H38      Z     0.00963  0.01849 -0.01327  0.03298  0.03265 -0.01696
  
  vibration #            7        8        9       10       11       12
                  -------- -------- -------- -------- -------- --------
  frequencies       124.49   125.34   150.36   167.90   174.97   188.59
  intensities         0.04     4.37     0.64     1.52     0.37     0.06
  reduc. mass         1.16     2.46     1.77     1.49     0.85     0.15
  force const         0.01     0.02     0.02     0.02     0.02     0.00
    Rh1      X    -0.01043  0.02181  0.00255 -0.01497 -0.00293  0.00015
    Rh1      Y    -0.01511 -0.00397 -0.02131 -0.00203  0.01715 -0.00075
    Rh1      Z     0.00017  0.00051 -0.00852  0.01107  0.00020  0.00716
    O2       X    -0.00441 -0.03847 -0.03682 -0.01463 -0.02545 -0.00093
    O2       Y     0.04409  0.12992 -0.02901  0.03741 -0.02083  0.00592
    O2       Z    -0.00338 -0.00394 -0.02349  0.00893 -0.01359  0.00039
    C3       X    -0.00037 -0.04926 -0.03578 -0.00445 -0.01877  0.00106
    C3       Y     0.03962  0.06853  0.00697  0.01159 -0.03129  0.00412
    C3       Z    -0.01121  0.01970 -0.02388 -0.01269 -0.02765 -0.00212
    N4       X    -0.00375 -0.02926 -0.03574 -0.01755 -0.02671 -0.00097
    N4       Y    -0.00512 -0.04636  0.01289 -0.03652 -0.01157 -0.00197
    N4       Z    -0.02121  0.03584 -0.02281 -0.03755 -0.03706 -0.00477
    C5       X    -0.01109  0.00007 -0.02922 -0.03896 -0.02938 -0.00403
    C5       Y    -0.02326 -0.02218 -0.01694 -0.03469 -0.00722 -0.00255
    C5       Z    -0.02389  0.03916 -0.02974 -0.03854 -0.03764 -0.00517
    C6       X    -0.01332  0.02063 -0.02911 -0.03073 -0.01463 -0.00694
    C6       Y    -0.02386 -0.00951 -0.02042 -0.01817  0.00593 -0.00057
    C6       Z    -0.02863  0.04858 -0.04815 -0.02081 -0.03422 -0.00026
    C7       X     0.00716 -0.01095 -0.00310 -0.00557 -0.00528 -0.00002
    C7       Y    -0.01149  0.00405 -0.00980 -0.01679 -0.00211 -0.00025
    C7       Z    -0.01793  0.00044 -0.01171 -0.02549 -0.02018 -0.00343
    N8       X     0.02638 -0.03667  0.01956  0.03980  0.02969  0.00702
    N8       Y     0.00916  0.06628  0.00304 -0.01086 -0.00762 -0.00389
    N8       Z    -0.02056 -0.09375 -0.00224  0.01509  0.02213  0.00777
    H9       X    -0.00487 -0.00160 -0.02290  0.00221  0.00994 -0.00202
    H9       Y    -0.01896 -0.02209 -0.00761 -0.02288  0.00730 -0.00268
    H9       Z    -0.03229  0.05834 -0.06085 -0.00996 -0.03079  0.00299
    H10      X    -0.01618  0.05083 -0.03243 -0.03561 -0.00618 -0.00796
    H10      Y    -0.02873  0.00505 -0.03582 -0.01033  0.00470  0.00364
    H10      Z    -0.03089  0.06206 -0.05442 -0.01946 -0.03265  0.00098
    H11      X    -0.00114 -0.03909 -0.03911 -0.00834 -0.02352  0.00014
    H11      Y    -0.00051 -0.06722  0.04872 -0.04559 -0.02312 -0.00344
    H11      Z    -0.02592  0.05388 -0.01523 -0.05496 -0.04326 -0.00682
    H12      X     0.00544 -0.07591 -0.03616  0.01560 -0.00621  0.00226
    H12      Y     0.07123  0.10337  0.03439  0.02591 -0.05652  0.00753
    H12      Z    -0.00996  0.02480 -0.02221 -0.01413 -0.03080 -0.00220
    P13      X     0.03421  0.00845  0.02464 -0.02169  0.00416  0.00916
    P13      Y     0.00471 -0.01282  0.00648 -0.00527  0.02630  0.01270
    P13      Z     0.00006 -0.00069 -0.00026  0.02119 -0.00361 -0.00335
    P14      X    -0.03125  0.01171  0.00661  0.05848  0.02314 -0.00475
    P14      Y    -0.00782 -0.01654  0.00042  0.00709 -0.01033 -0.00600
    P14      Z     0.01468 -0.00040  0.01560 -0.02300  0.04479  0.01047
    C15      X     0.06190 -0.00891  0.00291 -0.00158  0.00781  0.01043
    C15      Y    -0.00060 -0.00564  0.01291 -0.00896  0.01793  0.01078
    C15      Z    -0.04798  0.00979  0.01396  0.00366  0.04287  0.00410
    C16      X    -0.05428  0.00497  0.01594  0.04774  0.04882 -0.00448
    C16      Y    -0.01864 -0.00594  0.00932  0.00290  0.03393  0.00561
    C16      Z     0.01475 -0.00290  0.01109 -0.01879  0.03252  0.00758
    H17      X    -0.01230  0.02289 -0.00367 -0.02230 -0.00825 -0.00155
    H17      Y    -0.02028 -0.00457 -0.05473 -0.02580  0.00336 -0.01258
    H17      Z    -0.00701 -0.01844 -0.02202  0.01707 -0.00610  0.01191
    H18      X    -0.01591  0.03644 -0.05303 -0.02109  0.02068  0.00146
    H18      Y    -0.01656 -0.00700 -0.02259  0.00420  0.01683 -0.00038
    H18      Z    -0.01504 -0.01929 -0.01850  0.02264 -0.01729  0.00311
    C19      X    -0.00053 -0.00720  0.04648  0.00259  0.01538  0.00090
    C19      Y    -0.01480 -0.00006  0.09801  0.00545  0.01742 -0.00901
    C19      Z     0.01631  0.04248  0.12156  0.00788 -0.03747 -0.03133
    C20      X     0.05498 -0.02160 -0.01664  0.00682 -0.00789 -0.00632
    C20      Y     0.12009 -0.01704  0.00190 -0.02577  0.01237  0.02664
    C20      Z     0.03591 -0.04602 -0.06477  0.06745 -0.02583 -0.02853
    C21      X     0.01079 -0.00324  0.00473  0.02520  0.02382 -0.00289
    C21      Y     0.00447 -0.00958  0.00818  0.13741 -0.03347 -0.02194
    C21      Z     0.10383 -0.02228  0.01527 -0.01416  0.03431  0.00744
    C22      X    -0.00832 -0.01615  0.01103  0.01243 -0.04008 -0.00260
    C22      Y    -0.01903 -0.06385  0.04552 -0.05001 -0.11549 -0.01866
    C22      Z    -0.04156 -0.01946  0.07554 -0.02766  0.01057 -0.00993
    H23      X    -0.04708  0.00098  0.10304 -0.00746  0.04812  0.19948
    H23      Y     0.00018 -0.00367  0.06405  0.00435  0.01141 -0.04705
    H23      Z     0.06143  0.04209  0.19262  0.05133 -0.10299 -0.42395
    H24      X     0.08878 -0.05766 -0.07457  0.04054 -0.02347 -0.04320
    H24      Y     0.16266 -0.00998  0.03856 -0.00130 -0.02918  0.15876
    H24      Z     0.02036 -0.03901 -0.05825  0.05520 -0.01463 -0.04443
    H25      X    -0.00314 -0.02669  0.03155 -0.00524 -0.07407  0.14969
    H25      Y     0.00582 -0.00536  0.00268  0.13469 -0.01354 -0.04939
    H25      Z     0.11372 -0.06071  0.07598  0.15623 -0.18562  0.25433
    H26      X     0.03775 -0.01117 -0.00791  0.01005 -0.08731 -0.07392
    H26      Y    -0.02994 -0.09378  0.10965 -0.08164 -0.23193 -0.11756
    H26      Z    -0.04298 -0.01527  0.06728 -0.02294  0.03129  0.00991
    H27      X    -0.02506 -0.01004  0.01454  0.02532 -0.00611  0.01646
    H27      Y    -0.02123 -0.07905  0.03443 -0.08000 -0.12437  0.05439
    H27      Z    -0.07840 -0.01373  0.07817 -0.01479  0.07938  0.06608
    H28      X    -0.02162 -0.04498  0.02854 -0.03154 -0.08812  0.04284
    H28      Y    -0.01608 -0.05220  0.03165 -0.03418 -0.08409 -0.01092
    H28      Z    -0.04092 -0.04746  0.13392 -0.05876 -0.10924 -0.12294
    H29      X     0.08581 -0.00426 -0.02010 -0.01040  0.12969 -0.13798
    H29      Y     0.00461 -0.04746  0.07014  0.31155 -0.26280  0.23451
    H29      Z     0.10235 -0.01059 -0.00319 -0.06670  0.10274 -0.06853
    H30      X    -0.01546  0.00998  0.00108  0.05950  0.03274 -0.02991
    H30      Y     0.01483  0.02555 -0.04060  0.08565  0.14756 -0.25816
    H30      Z     0.16105 -0.00992 -0.02773 -0.12764  0.20430 -0.18620
    H31      X    -0.01219  0.00796  0.06850 -0.01675  0.02581  0.13316
    H31      Y    -0.07405 -0.00164  0.10723 -0.01196  0.07262  0.28101
    H31      Z    -0.00720  0.07203  0.16413 -0.02985 -0.01712  0.22817
    H32      X     0.03335 -0.03990 -0.00607  0.04531 -0.01191 -0.31288
    H32      Y     0.01675  0.01440  0.20017  0.03130 -0.03637 -0.27439
    H32      Z     0.00629  0.04370  0.10908 -0.00192 -0.02425  0.05508
    H33      X     0.00177 -0.01295  0.01208  0.03469 -0.02440  0.05988
    H33      Y     0.14136 -0.02061 -0.01227 -0.04139  0.02351 -0.01183
    H33      Z     0.09540 -0.05414 -0.05932  0.10025 -0.07125  0.07073
    H34      X     0.08332 -0.01489 -0.01826 -0.02579  0.01115 -0.04539
    H34      Y     0.13721 -0.02288 -0.02725 -0.05132  0.03696 -0.05798
    H34      Z     0.01390 -0.07174 -0.12219  0.07956 -0.01341 -0.12655
    H35      X     0.04247 -0.00385  0.00824  0.00010  0.01480  0.00898
    H35      Y     0.02874 -0.00219  0.01811 -0.04058  0.00895  0.01886
    H35      Z    -0.14787  0.03057  0.03455  0.02471  0.07816 -0.00487
    H36      X     0.15241 -0.02964 -0.01749 -0.01349 -0.02530  0.01607
    H36      Y    -0.01296 -0.00444  0.00053  0.00826  0.00327  0.00812
    H36      Z    -0.03923  0.00815  0.01521 -0.00054  0.04341  0.00484
    H37      X    -0.06106  0.00379  0.01853  0.04905  0.06226 -0.00513
    H37      Y    -0.10995  0.00295  0.02233  0.03706  0.08640 -0.00442
    H37      Z     0.05023 -0.01196  0.01043 -0.03593  0.03837  0.01176
    H38      X    -0.12417  0.01068  0.02383  0.07675  0.09282 -0.01326
    H38      Y     0.02346 -0.00958  0.00580 -0.01558  0.00928  0.01126
    H38      Z     0.02134 -0.00224 -0.00254 -0.01136  0.00541  0.00293
  
  vibration #           13       14       15       16       17       18
                  -------- -------- -------- -------- -------- --------
  frequencies       190.82   198.34   206.38   212.04   220.12   222.41
  intensities         0.41     2.45     2.29     1.61     0.69     0.18
  reduc. mass         0.11     0.87     2.53     2.07     0.57     0.27
  force const         0.00     0.02     0.06     0.05     0.02     0.01
    Rh1      X     0.00322 -0.00517 -0.01107  0.01561 -0.00876  0.00486
    Rh1      Y     0.00655  0.02337  0.00669  0.02522 -0.01465  0.00949
    Rh1      Z    -0.00144 -0.01157  0.03326  0.01477  0.01643  0.01521
    O2       X    -0.00488  0.01889  0.01090 -0.05208  0.00832 -0.00872
    O2       Y    -0.00877  0.03484  0.00978 -0.07300 -0.02392 -0.00374
    O2       Z    -0.00441 -0.00503  0.03153 -0.02048  0.02581  0.00197
    C3       X    -0.00602  0.02453  0.02435 -0.05384  0.00687 -0.00370
    C3       Y    -0.00569 -0.04218 -0.00009 -0.00754  0.02986 -0.00081
    C3       Z    -0.00220 -0.01671  0.00701 -0.01722  0.03006 -0.00648
    N4       X    -0.00382  0.01621  0.00645 -0.04668  0.00864 -0.00942
    N4       Y     0.00496 -0.03317 -0.01484  0.03915  0.02405  0.00073
    N4       Z     0.00187 -0.02570 -0.01893 -0.00427  0.03148 -0.01408
    C5       X     0.00293  0.00233 -0.02950 -0.01080  0.00468 -0.01597
    C5       Y    -0.00147  0.04055 -0.01189 -0.02569 -0.03116 -0.00207
    C5       Z     0.00082 -0.01239 -0.01846 -0.01884  0.02226 -0.01559
    C6       X     0.01233 -0.01877 -0.04199  0.04289  0.01416 -0.01333
    C6       Y    -0.00120  0.04953 -0.00386 -0.02103 -0.04019  0.00612
    C6       Z    -0.01085  0.04105  0.00241 -0.07851 -0.01123 -0.00639
    C7       X     0.00181 -0.00903 -0.01172  0.00928  0.01018 -0.00559
    C7       Y    -0.00324  0.03714  0.00080 -0.03049 -0.02701  0.00045
    C7       Z     0.00175 -0.01772 -0.01266  0.00238  0.02136 -0.00934
    N8       X    -0.00288 -0.00344  0.01816  0.01382  0.01293  0.01371
    N8       Y     0.00634 -0.03392 -0.01371  0.02608  0.02326 -0.00517
    N8       Z    -0.01384  0.06589  0.03396 -0.05503 -0.03077  0.01731
    H9       X     0.01887 -0.04966 -0.01947  0.09356  0.03497  0.00427
    H9       Y     0.00724  0.00783 -0.01082  0.02913 -0.01262  0.00400
    H9       Z    -0.01843  0.07996  0.01377 -0.12283 -0.03705 -0.00071
    H10      X     0.01846 -0.01500 -0.05770  0.04604  0.00699 -0.01784
    H10      Y    -0.01388  0.10702  0.00764 -0.09058 -0.07772  0.01109
    H10      Z    -0.01380  0.06209  0.00179 -0.10208 -0.02616 -0.00605
    H11      X    -0.00618  0.02523  0.01861 -0.05987  0.00658 -0.00672
    H11      Y     0.00615 -0.10841 -0.01762  0.09688  0.07109  0.00333
    H11      Z     0.00634 -0.04486 -0.04168  0.02255  0.03665 -0.01887
    H12      X    -0.00822  0.03526  0.04569 -0.05873  0.00291  0.00287
    H12      Y    -0.01112 -0.11700  0.00344  0.01324  0.08160  0.00054
    H12      Z    -0.00233 -0.02262  0.00459 -0.01549  0.03376 -0.00731
    P13      X     0.00458  0.01322  0.04840  0.02041 -0.00766  0.01701
    P13      Y     0.01250 -0.02651 -0.01537 -0.01116  0.01494  0.01581
    P13      Z    -0.00457 -0.00179 -0.00903  0.02571 -0.02015 -0.00266
    P14      X    -0.00440 -0.01231 -0.01192 -0.01359 -0.00675  0.00390
    P14      Y    -0.00923  0.00345  0.01466  0.01774  0.01509 -0.01229
    P14      Z     0.02131  0.00725 -0.01061  0.00332 -0.00009  0.01095
    C15      X    -0.01416  0.03033  0.03527  0.01400  0.01808  0.00127
    C15      Y     0.01467 -0.03100 -0.00574 -0.00058  0.00407  0.01917
    C15      Z     0.02815 -0.02518 -0.01884  0.00781 -0.02414  0.01977
    C16      X    -0.00459 -0.00081  0.00030 -0.01146  0.03191 -0.00741
    C16      Y     0.01116 -0.01930 -0.00571 -0.00167  0.02574  0.00535
    C16      Z     0.01633  0.01165 -0.00308  0.01273 -0.00594  0.00697
    H17      X     0.00280 -0.00485 -0.01564  0.01295 -0.00669  0.00028
    H17      Y     0.01167  0.02052 -0.00321  0.04591  0.00008  0.00084
    H17      Z    -0.00686 -0.01804  0.01644  0.01790  0.01099  0.00909
    H18      X     0.02257 -0.00139 -0.04704  0.03002 -0.00368  0.00097
    H18      Y     0.00501  0.02166  0.00581  0.02352 -0.01306  0.00774
    H18      Z    -0.00697 -0.02349  0.04091 -0.00601  0.02640  0.02105
    C19      X     0.01218 -0.01327  0.00923 -0.04622  0.00711 -0.00445
    C19      Y     0.00695 -0.00069 -0.03684 -0.05680  0.00340 -0.02383
    C19      Z    -0.02673  0.08575  0.01475  0.05460 -0.06871 -0.04134
    C20      X    -0.00119  0.00415 -0.01621  0.02828 -0.03754 -0.01093
    C20      Y     0.01251 -0.04188 -0.02431 -0.04257 -0.01393  0.00531
    C20      Z    -0.01670 -0.01482 -0.12259  0.03963 -0.07230 -0.05045
    C21      X    -0.00005 -0.00353 -0.02159 -0.02275  0.00455 -0.00577
    C21      Y    -0.04605 -0.03146  0.03355 -0.01042  0.03277 -0.03169
    C21      Z     0.01247  0.00634 -0.02053 -0.03167  0.02932 -0.01587
    C22      X    -0.01147 -0.01210  0.01901  0.01219  0.00326 -0.00630
    C22      Y    -0.03823 -0.02234  0.02323  0.00986  0.02437 -0.03739
    C22      Z    -0.00397 -0.02929 -0.06117 -0.05911 -0.00780 -0.00592
    H23      X    -0.12441 -0.06903  0.00351 -0.09928 -0.07101 -0.10570
    H23      Y     0.03751  0.00619 -0.02874 -0.03055  0.02351  0.00953
    H23      Z     0.20929  0.22641 -0.02878  0.03182  0.04667  0.05016
    H24      X     0.01552 -0.03688 -0.09675  0.03627 -0.13045 -0.08539
    H24      Y    -0.21096  0.17510 -0.27148  0.00004  0.23602  0.22212
    H24      Z     0.02060 -0.04529 -0.05864  0.03018 -0.09699 -0.07315
    H25      X     0.19171  0.04209 -0.06422 -0.00850 -0.03744  0.06757
    H25      Y    -0.07938 -0.03761  0.04015 -0.01095  0.03869 -0.04354
    H25      Z     0.29090  0.02500 -0.05817 -0.06134  0.00716  0.06713
    H26      X    -0.11559 -0.10590  0.07123  0.01832 -0.14806  0.29333
    H26      Y    -0.18044 -0.17327  0.00842 -0.07133 -0.13318  0.23777
    H26      Z     0.02467 -0.00023 -0.06273 -0.04747  0.02611 -0.06765
    H27      X     0.01992  0.01363 -0.00625  0.00140  0.03911 -0.08055
    H27      Y     0.05378  0.07995  0.04524  0.07111  0.17541 -0.31003
    H27      Z     0.10782  0.07470 -0.10557 -0.05327  0.14179 -0.29624
    H28      X     0.04148  0.04694  0.02800  0.04277  0.11966 -0.22392
    H28      Y    -0.02421 -0.00877  0.02188  0.01565  0.02780 -0.04132
    H28      Z    -0.16589 -0.19773 -0.06633 -0.13878 -0.19848  0.33482
    H29      X    -0.16242 -0.02676 -0.01022 -0.05875  0.06340 -0.08805
    H29      Y     0.24363 -0.01150 -0.00198 -0.03292  0.00446  0.05858
    H29      Z    -0.07316  0.00067 -0.00991 -0.02434  0.03707 -0.04201
    H30      X    -0.03770 -0.01928 -0.00082 -0.01348  0.00248 -0.01067
    H30      Y    -0.32859 -0.07678  0.08526 -0.01046  0.07959 -0.13018
    H30      Z    -0.20958 -0.01210 -0.00499 -0.04881  0.08109 -0.10800
    H31      X    -0.08523 -0.02488  0.03350 -0.02188 -0.06026 -0.05717
    H31      Y    -0.17346 -0.11020 -0.03739 -0.11218 -0.08434 -0.13153
    H31      Z    -0.21797  0.06283  0.06184  0.10272 -0.20090 -0.14486
    H32      X     0.24108  0.02325 -0.03955 -0.08864  0.16224  0.12375
    H32      Y     0.14980  0.12652 -0.06097 -0.06880  0.05473  0.01265
    H32      Z    -0.08050  0.05810  0.02494  0.06195 -0.09670 -0.06341
    H33      X    -0.13576  0.15437 -0.13921  0.08667  0.13681  0.12587
    H33      Y     0.08987 -0.12570  0.05150 -0.07321 -0.10918 -0.07053
    H33      Z    -0.20357  0.15615 -0.37271  0.07644  0.09962  0.10347
    H34      X     0.09829 -0.10029  0.10785 -0.01957 -0.14114 -0.09206
    H34      Y     0.17037 -0.20849  0.13406 -0.09326 -0.20366 -0.15020
    H34      Z     0.11168 -0.15087 -0.04212  0.03178 -0.25922 -0.21153
    H35      X    -0.00551  0.01880  0.03144  0.01114  0.01071  0.00721
    H35      Y     0.02958 -0.03693  0.00818  0.00925 -0.02204  0.03765
    H35      Z     0.06067 -0.07549 -0.04304 -0.00985 -0.04632  0.03798
    H36      X    -0.05118  0.08248  0.05739  0.02949  0.04683 -0.02310
    H36      Y     0.00398 -0.03707 -0.00407  0.00956 -0.00181  0.01499
    H36      Z     0.02776 -0.02029 -0.01743  0.00681 -0.02096  0.01871
    H37      X    -0.00436  0.00151  0.00097 -0.01505  0.04945 -0.01352
    H37      Y     0.02021 -0.04407 -0.03064 -0.02606  0.06157 -0.00662
    H37      Z     0.01099  0.03361  0.01420  0.01783  0.02252 -0.00269
    H38      X    -0.00028 -0.01215 -0.01596 -0.02799  0.06931 -0.02184
    H38      Y     0.00907 -0.01368  0.00321  0.00692  0.00447  0.01485
    H38      Z     0.00779  0.02459  0.00807  0.02920 -0.02485 -0.00035
  
  vibration #           19       20       21       22       23       24
                  -------- -------- -------- -------- -------- --------
  frequencies       234.03   253.81   262.58   273.28   283.45   305.44
  intensities         0.60     0.71     6.47    12.17    21.96     2.92
  reduc. mass         1.20     1.26     2.42     4.52    11.11     1.25
  force const         0.04     0.05     0.10     0.20     0.53     0.07
    Rh1      X    -0.02487 -0.00066 -0.01608  0.01343  0.05488  0.00545
    Rh1      Y     0.01297  0.01141  0.03104 -0.00671  0.00982  0.01315
    Rh1      Z    -0.01013  0.01310  0.00665  0.03924 -0.00060 -0.00012
    O2       X     0.01690 -0.00098 -0.00123 -0.03829 -0.00917 -0.00051
    O2       Y    -0.02115 -0.00132 -0.01683  0.01214 -0.00565 -0.00285
    O2       Z     0.01405  0.00921  0.03256 -0.10904  0.06204  0.00900
    C3       X     0.01135  0.00243  0.00351 -0.05118  0.00494  0.00236
    C3       Y    -0.00674  0.01505 -0.01452 -0.00986  0.00210 -0.00224
    C3       Z     0.02260  0.00365  0.01904 -0.07633  0.03252  0.00361
    N4       X     0.01848 -0.00205 -0.00214 -0.02045 -0.02544 -0.00213
    N4       Y     0.02347  0.00041  0.01320 -0.00540 -0.00939  0.00393
    N4       Z     0.03401 -0.00398  0.00986 -0.02701 -0.01223 -0.00178
    C5       X     0.03148 -0.01276 -0.00405  0.05829 -0.08497 -0.00948
    C5       Y    -0.00262 -0.01356 -0.01329  0.05239 -0.03430 -0.00278
    C5       Z     0.03130 -0.00675  0.00520 -0.01993 -0.01946 -0.00334
    C6       X     0.05973 -0.00412  0.04594  0.03999 -0.08553 -0.00692
    C6       Y    -0.01082 -0.00376 -0.00381  0.04739 -0.01817  0.00005
    C6       Z    -0.00865 -0.00026 -0.02753  0.01417 -0.01678 -0.00408
    C7       X     0.01778 -0.00505 -0.00156  0.03295 -0.04651 -0.00446
    C7       Y    -0.01571 -0.00952 -0.02043  0.03109 -0.00282  0.00013
    C7       Z     0.02931 -0.00407  0.01142 -0.02542 -0.00843 -0.00012
    N8       X     0.00220  0.00853  0.01291 -0.00856 -0.00037  0.00155
    N8       Y     0.02217  0.00162  0.01683 -0.03211  0.01447  0.00201
    N8       Z    -0.02813 -0.00224 -0.01398 -0.00036  0.02173  0.00404
    H9       X     0.07088  0.02741  0.09158  0.01968 -0.08115 -0.00420
    H9       Y     0.01893 -0.00086  0.02917  0.03065 -0.02778  0.00001
    H9       Z    -0.03820  0.00245 -0.05420  0.02770 -0.00553 -0.00361
    H10      X     0.07250 -0.01308  0.05609 -0.00442 -0.06716 -0.00481
    H10      Y    -0.05632 -0.00624 -0.05294  0.06572  0.00092  0.00204
    H10      Z    -0.02115 -0.00383 -0.04217  0.00850 -0.00521 -0.00276
    H11      X     0.01447  0.00029  0.00078 -0.04700 -0.00498  0.00039
    H11      Y     0.01944  0.01912  0.00666 -0.03785  0.02979  0.00815
    H11      Z     0.04126 -0.00772  0.00421  0.02271 -0.04982 -0.00637
    H12      X     0.00547  0.00713  0.01901 -0.09826  0.04284  0.00864
    H12      Y    -0.01720  0.04083 -0.03350 -0.03476  0.01960 -0.00527
    H12      Z     0.02301  0.00467  0.01657 -0.07401  0.02972  0.00284
    P13      X    -0.02670  0.01625 -0.01099 -0.03017 -0.04907  0.02061
    P13      Y    -0.00946  0.02311 -0.04438 -0.00765 -0.01236 -0.05543
    P13      Z    -0.00849 -0.00034  0.00792  0.02586 -0.00104  0.01563
    P14      X    -0.02038  0.01009  0.04097 -0.01681 -0.02065 -0.04204
    P14      Y     0.00606 -0.00697 -0.01230 -0.00916  0.01509 -0.00755
    P14      Z     0.00711 -0.06536 -0.02153 -0.01612 -0.00092 -0.04685
    C15      X     0.05492  0.01392 -0.01108  0.01997  0.01491 -0.06999
    C15      Y    -0.04287  0.03502 -0.05315 -0.02470 -0.03797 -0.01518
    C15      Z    -0.05019 -0.04643 -0.01543 -0.04038 -0.05159  0.05449
    C16      X     0.08025 -0.01961 -0.06661  0.01000  0.00272  0.06884
    C16      Y     0.00720 -0.00507 -0.07948 -0.01618 -0.00681  0.00000
    C16      Z    -0.00162 -0.07199 -0.00040 -0.01879  0.00085 -0.04964
    H17      X    -0.01521 -0.00339 -0.01281  0.01568  0.03564  0.00502
    H17      Y     0.06215  0.01194  0.06927 -0.00342 -0.03235  0.04079
    H17      Z    -0.00862  0.01381 -0.00510  0.10333 -0.00687 -0.01039
    H18      X     0.07932  0.00520  0.07797 -0.01254 -0.09882 -0.01513
    H18      Y     0.01894  0.01438  0.03717 -0.00399 -0.01173  0.00679
    H18      Z    -0.02272  0.05226  0.00492  0.05679 -0.00875 -0.00370
    C19      X     0.01377 -0.05045  0.07102  0.03467  0.01423  0.04835
    C19      Y     0.05043 -0.02490  0.01644  0.01599  0.03118 -0.04879
    C19      Z     0.03264  0.01380 -0.00191 -0.03277 -0.02686  0.01927
    C20      X    -0.02058  0.01697 -0.03424 -0.04908 -0.03918  0.00534
    C20      Y    -0.04339 -0.05843  0.06092  0.00312 -0.00253  0.05451
    C20      Z     0.00032 -0.00650 -0.02375  0.00139  0.02768 -0.00346
    C21      X     0.00719  0.08077  0.03061 -0.00274 -0.00407  0.00341
    C21      Y    -0.01047 -0.03268 -0.00331  0.00289 -0.02703 -0.00337
    C21      Z     0.05352  0.04661 -0.04471  0.02142  0.00957  0.04695
    C22      X    -0.02646 -0.07392  0.00378 -0.00545 -0.02041 -0.04113
    C22      Y    -0.03515 -0.00846 -0.02659  0.01727  0.01590  0.02620
    C22      Z    -0.04401  0.08264  0.03751 -0.00016 -0.01252 -0.02549
    H23      X     0.10300 -0.10994  0.15620  0.07501  0.07121  0.06341
    H23      Y     0.01256  0.00536 -0.02555 -0.00352  0.00405 -0.05639
    H23      Z     0.02071 -0.01802  0.03333 -0.01852 -0.01123  0.02470
    H24      X    -0.01354  0.00834 -0.06633 -0.07022 -0.00935 -0.00159
    H24      Y    -0.13201 -0.12918  0.13140 -0.01505 -0.02070  0.15179
    H24      Z     0.01479  0.00861 -0.02953  0.00959  0.02404 -0.01964
    H25      X     0.05743  0.13724  0.01884 -0.01108  0.04571  0.01262
    H25      Y    -0.01941 -0.04183 -0.00121  0.00320 -0.03282 -0.00633
    H25      Z     0.13850  0.10438 -0.07291  0.04186  0.00580  0.10353
    H26      X     0.13734 -0.21120 -0.06672 -0.01944 -0.01052 -0.05281
    H26      Y     0.04385  0.06303 -0.02472  0.03046  0.01790  0.04079
    H26      Z    -0.06731  0.08162  0.04213 -0.00108 -0.01351 -0.02719
    H27      X    -0.06513 -0.00495  0.03656 -0.00612 -0.02396 -0.03927
    H27      Y    -0.16551 -0.08774 -0.04612  0.03645  0.01603  0.03255
    H27      Z    -0.18936  0.19498  0.09899  0.00736 -0.01988 -0.01808
    H28      X    -0.15176 -0.10488 -0.00613  0.02339 -0.02123 -0.02303
    H28      Y    -0.02482 -0.00876 -0.02197  0.00856  0.01536  0.01949
    H28      Z     0.07418  0.12900  0.02486  0.01003 -0.00825 -0.01312
    H29      X     0.02450  0.17919  0.00751  0.03513 -0.00504  0.11339
    H29      Y     0.06845  0.00427 -0.02754  0.01774 -0.03253  0.03578
    H29      Z     0.02946  0.03370 -0.03726  0.01628  0.01125  0.03344
    H30      X    -0.02925  0.00099  0.04681 -0.01577 -0.03150 -0.05219
    H30      Y    -0.08420 -0.09759  0.01531  0.00248 -0.06455 -0.02628
    H30      Z     0.04330  0.12391 -0.05461  0.04422  0.02016  0.12340
    H31      X     0.04089 -0.02909  0.05218  0.00075 -0.00773  0.04205
    H31      Y     0.12693 -0.08223  0.09754  0.07034  0.09046 -0.02995
    H31      Z     0.08589  0.05630 -0.03989 -0.09908 -0.07005  0.00617
    H32      X    -0.05637 -0.08536  0.09794  0.09686  0.05159  0.05706
    H32      Y     0.07199 -0.05032  0.05126  0.00957  0.03728 -0.04336
    H32      Z     0.03729  0.02270 -0.01159 -0.03893 -0.03247  0.01702
    H33      X    -0.03452  0.05982 -0.09231 -0.06813 -0.05715 -0.06850
    H33      Y    -0.03187 -0.07422  0.08507  0.01411  0.00606  0.08396
    H33      Z    -0.07747 -0.07880  0.03086 -0.02549  0.02523  0.09026
    H34      X    -0.01112 -0.01402  0.02299 -0.02343 -0.03340  0.06760
    H34      Y    -0.00635 -0.06328  0.07526  0.02299  0.01561  0.07400
    H34      Z     0.05941  0.04818 -0.11164 -0.00990  0.05361 -0.09183
    H35      X     0.02987  0.00951 -0.01643 -0.00144 -0.01311 -0.02506
    H35      Y    -0.11900  0.03400 -0.03240 -0.07388 -0.09279  0.00681
    H35      Z    -0.12905 -0.06714 -0.04883 -0.11426 -0.15385  0.24929
    H36      X     0.15289  0.03606  0.01749  0.10542  0.13139 -0.25991
    H36      Y    -0.04181  0.07115 -0.04718 -0.00239 -0.02934  0.01384
    H36      Z    -0.04345 -0.05238 -0.01447 -0.03869 -0.04517  0.03579
    H37      X     0.12238 -0.03226 -0.11464  0.02231  0.01491  0.11655
    H37      Y     0.09036 -0.04614 -0.21071 -0.00372 -0.00102  0.19126
    H37      Z     0.06983 -0.08419 -0.05867  0.00954  0.03332 -0.02944
    H38      X     0.16556 -0.06252 -0.18022  0.02534  0.01896  0.22135
    H38      Y    -0.04108  0.02148 -0.01825 -0.02474 -0.01731 -0.08644
    H38      Z    -0.04446 -0.07033  0.08848 -0.02775  0.00675 -0.11709
  
  vibration #           25       26       27       28       29       30
                  -------- -------- -------- -------- -------- --------
  frequencies       324.83   335.19   364.21   381.34   432.82   446.77
  intensities         6.39    19.41     6.53    28.31     9.60     5.91
  reduc. mass         5.93     1.46     7.59     3.45     3.10     1.79
  force const         0.37     0.10     0.59     0.30     0.34     0.21
    Rh1      X    -0.00439 -0.00338 -0.00574 -0.00013 -0.00069 -0.00207
    Rh1      Y    -0.01748  0.02329 -0.01407 -0.01349  0.00982  0.00852
    Rh1      Z     0.01205 -0.00766 -0.03433  0.00045 -0.00332 -0.00121
    O2       X     0.00533  0.01392 -0.00437 -0.06955 -0.04113  0.00105
    O2       Y    -0.02237 -0.08616 -0.00703 -0.02916  0.01375 -0.00768
    O2       Z    -0.03596 -0.04623  0.02074  0.13902  0.05695 -0.00349
    C3       X    -0.00269  0.00119 -0.00061 -0.01981 -0.01694 -0.00020
    C3       Y     0.02618  0.11400  0.01519  0.03928 -0.02074 -0.00109
    C3       Z    -0.01415 -0.01460  0.00694  0.02310  0.01029 -0.00048
    N4       X     0.00845  0.01599 -0.00365 -0.04639 -0.01554  0.00157
    N4       Y    -0.00292 -0.01945 -0.00657 -0.02705  0.02736  0.00121
    N4       Z     0.00342 -0.00371 -0.00569 -0.04893  0.00687  0.00279
    C5       X     0.01463 -0.00546  0.00177  0.02716  0.06595  0.00260
    C5       Y    -0.00561 -0.04944  0.00495  0.03870  0.00367 -0.00627
    C5       Z     0.00228 -0.01010 -0.00308 -0.04409 -0.01034 -0.00021
    C6       X    -0.01605 -0.03593  0.01778  0.11364 -0.11513 -0.01590
    C6       Y    -0.00923 -0.01021  0.00941  0.07864 -0.04694 -0.00659
    C6       Z     0.03127  0.10627  0.01013  0.02156 -0.00978  0.00432
    C7       X     0.01541  0.01291 -0.00137  0.01847  0.18211  0.02204
    C7       Y    -0.00390 -0.02251  0.00490  0.03062  0.04159  0.00012
    C7       Z    -0.00328 -0.02895 -0.01033 -0.06501  0.02647  0.00657
    N8       X     0.00181  0.02525  0.00190  0.01685 -0.02385 -0.00126
    N8       Y    -0.01385 -0.02947 -0.00367 -0.03342 -0.08077 -0.00905
    N8       Z    -0.00706 -0.01165  0.00314  0.00119 -0.06275 -0.00889
    H9       X    -0.03543 -0.02908 -0.02009  0.05290 -0.12067 -0.02806
    H9       Y    -0.03532 -0.10770 -0.00743  0.03246 -0.07235 -0.02279
    H9       Z     0.05495  0.21250  0.02073  0.05845  0.01833  0.01998
    H10      X    -0.03189 -0.03298  0.01947  0.08347 -0.09337  0.01092
    H10      Y     0.02780  0.13300  0.02594  0.12220  0.02115  0.02043
    H10      Z     0.04035  0.15710  0.01659  0.02861  0.01891  0.02092
    H11      X     0.00007  0.00096 -0.00266 -0.05519 -0.03359 -0.00139
    H11      Y     0.05370  0.26035  0.01597  0.07338 -0.01737  0.03824
    H11      Z     0.02094  0.03303 -0.00672 -0.02752  0.03966  0.00937
    H12      X    -0.02938 -0.03300  0.01780  0.09060  0.02014 -0.00342
    H12      Y     0.08633  0.37219  0.04697  0.13182 -0.08152  0.00095
    H12      Z    -0.00814  0.00484  0.00761  0.01874  0.00327  0.00001
    P13      X    -0.00390 -0.00261  0.01360 -0.00298  0.00017 -0.00163
    P13      Y    -0.03636  0.00416  0.01209 -0.00502  0.00640 -0.05221
    P13      Z    -0.03347  0.00446  0.11376 -0.02523  0.00173  0.00509
    P14      X     0.02504 -0.00442  0.00188 -0.00322  0.00118  0.01762
    P14      Y     0.11303 -0.03060  0.03492  0.00115 -0.00144 -0.01228
    P14      Z     0.00608  0.00241 -0.00833  0.00374 -0.00606  0.04355
    C15      X    -0.03389  0.01067  0.04552 -0.01372  0.00994 -0.06401
    C15      Y    -0.02325 -0.01460  0.03767 -0.00412 -0.00546  0.06095
    C15      Z    -0.00686  0.01411  0.02132 -0.01150  0.01274 -0.10973
    C16      X    -0.01002  0.00368 -0.00251  0.00040  0.00351 -0.03743
    C16      Y     0.03427 -0.02837  0.01420  0.00853 -0.01686  0.12469
    C16      Z     0.03947  0.00448  0.01073 -0.00351  0.00250 -0.04587
    H17      X    -0.00342 -0.00496 -0.00556  0.00527  0.00360 -0.00229
    H17      Y    -0.02080  0.05610 -0.02033 -0.03526  0.05929  0.00729
    H17      Z     0.02694 -0.00723 -0.04158  0.01177 -0.01558 -0.01374
    H18      X    -0.05221  0.01555 -0.01286  0.00613  0.02621  0.02663
    H18      Y    -0.01025  0.02276 -0.00740  0.00166 -0.01109  0.00453
    H18      Z     0.00856  0.06016 -0.03335 -0.02709 -0.02191 -0.06397
    C19      X     0.00545  0.00204  0.04715 -0.00900 -0.00256  0.02995
    C19      Y    -0.00728  0.00935 -0.05248  0.00729  0.00596 -0.05680
    C19      Z     0.00899  0.00456  0.00780 -0.00455 -0.00192  0.02291
    C20      X     0.01939 -0.00509 -0.07533  0.01609 -0.00497 -0.00903
    C20      Y     0.01638 -0.00186 -0.00687  0.00091 -0.00008  0.00075
    C20      Z     0.00059  0.00386  0.00951 -0.00405 -0.00128  0.00030
    C21      X     0.06218 -0.01703  0.02087 -0.00511  0.00501 -0.01206
    C21      Y    -0.02029 -0.00043 -0.00458 -0.00140  0.00115  0.00046
    C21      Z    -0.03258  0.00397 -0.01083  0.00315 -0.00250  0.00753
    C22      X    -0.06917  0.01760 -0.02867 -0.00021 -0.00396  0.04546
    C22      Y     0.00533 -0.01333  0.01217  0.00401 -0.00246 -0.03159
    C22      Z    -0.02180  0.00001 -0.01531  0.00040 -0.00204  0.04036
    H23      X     0.02362  0.01578  0.02214 -0.00812  0.00012  0.00855
    H23      Y    -0.01823  0.00231 -0.03387  0.00539  0.00529 -0.04657
    H23      Z     0.02964  0.01410 -0.05170  0.00503 -0.00423  0.00830
    H24      X     0.06415 -0.00049 -0.22028  0.04261 -0.01350 -0.01166
    H24      Y     0.03964 -0.01103 -0.02413 -0.00199 -0.00151  0.02859
    H24      Z    -0.01389  0.00450  0.04582 -0.00971  0.00088 -0.00414
    H25      X     0.19508 -0.04525  0.06855 -0.00163  0.00191 -0.03783
    H25      Y    -0.03417  0.00274 -0.00953 -0.00187  0.00138  0.00385
    H25      Z    -0.08918  0.00873 -0.03261  0.00397  0.00132  0.00125
    H26      X    -0.05102  0.02095 -0.02539 -0.00117 -0.00339  0.02574
    H26      Y    -0.04188 -0.01905 -0.00774  0.00954 -0.00574  0.00018
    H26      Z    -0.01597  0.00027 -0.01270 -0.00038 -0.00177  0.03776
    H27      X    -0.04019  0.00970 -0.01955 -0.00172 -0.00231  0.04831
    H27      Y    -0.11244  0.01323 -0.02100  0.01245 -0.01062 -0.02611
    H27      Z    -0.01458 -0.00441 -0.01106  0.00117 -0.00272  0.04953
    H28      X    -0.21016  0.03956 -0.06952  0.01042 -0.01508  0.05686
    H28      Y     0.04455 -0.01697  0.02453  0.00096  0.00060 -0.03797
    H28      Z    -0.05363 -0.01052 -0.03101  0.00345 -0.00492  0.06516
    H29      X     0.00544 -0.01178  0.01208 -0.00505  0.01335 -0.06528
    H29      Y    -0.07701  0.00563 -0.02818 -0.00022  0.00398  0.00593
    H29      Z    -0.01425  0.00190 -0.00354  0.00279 -0.00352  0.00677
    H30      X     0.00910 -0.00104 -0.00294 -0.00700  0.00264  0.02875
    H30      Y    -0.10444  0.02093 -0.03459 -0.00493  0.00273  0.01877
    H30      Z    -0.02339 -0.00279  0.00120  0.00284  0.00331 -0.04671
    H31      X     0.01525  0.00276  0.00469 -0.00205 -0.00439  0.02896
    H31      Y    -0.00495  0.01879 -0.02446 -0.00082  0.00948 -0.06905
    H31      Z     0.02822  0.00587 -0.07626  0.00921 -0.00569  0.02105
    H32      X    -0.01924 -0.00035  0.13749 -0.02345  0.00166  0.02700
    H32      Y     0.02508  0.02201 -0.14969  0.02044  0.00372 -0.07171
    H32      Z     0.00587  0.00267  0.01478 -0.00537 -0.00200  0.02553
    H33      X    -0.02694 -0.00579 -0.05344  0.00483  0.00552 -0.07409
    H33      Y     0.03543 -0.00119 -0.01165  0.00540 -0.00488  0.02999
    H33      Z     0.04875  0.00030 -0.07874  0.00811 -0.00603  0.02943
    H34      X     0.03911 -0.00540 -0.04031  0.01288 -0.01092  0.04593
    H34      Y     0.03765  0.00158 -0.01350  0.00671 -0.00689  0.03744
    H34      Z     0.00467  0.01181 -0.07742  0.01407 -0.00240 -0.03604
    H35      X    -0.02832  0.01007  0.02678 -0.01081  0.01196 -0.09202
    H35      Y    -0.00237 -0.02030  0.01132  0.00129 -0.00633  0.05295
    H35      Z     0.00860  0.01445 -0.05162 -0.00093  0.02296 -0.24008
    H36      X    -0.04845  0.00869  0.12592 -0.02416 -0.00258  0.09149
    H36      Y    -0.06250 -0.00955  0.09446 -0.01643  0.00065  0.05891
    H36      Z     0.00055  0.01283  0.01591 -0.00989  0.01062 -0.09910
    H37      X    -0.02158  0.00327 -0.01019  0.00606 -0.00310 -0.00825
    H37      Y     0.01589 -0.03491 -0.02876  0.02933 -0.03900  0.24547
    H37      Z     0.01689  0.00773  0.01518 -0.00025 -0.00228 -0.04029
    H38      X    -0.00682 -0.00598 -0.04077  0.02051 -0.01889  0.08382
    H38      Y     0.02464 -0.02176  0.03715 -0.00320 -0.00399  0.05614
    H38      Z     0.12433 -0.00559  0.02272 -0.01002  0.01099 -0.09745
  
  vibration #           31       32       33       34       35       36
                  -------- -------- -------- -------- -------- --------
  frequencies       480.45   569.81   576.88   599.21   630.14   642.85
  intensities        15.37    28.03    52.97    10.90     1.29    13.53
  reduc. mass         2.35     1.31     0.72     3.86     1.10     1.95
  force const         0.32     0.25     0.14     0.82     0.26     0.47
    Rh1      X     0.00084 -0.00232 -0.00045  0.00095 -0.00076 -0.00008
    Rh1      Y    -0.00424 -0.00465  0.00071  0.00129  0.00205 -0.00269
    Rh1      Z    -0.00149  0.00375 -0.00038 -0.00012 -0.00379 -0.00481
    O2       X    -0.01922  0.02882 -0.01877 -0.01428 -0.00167 -0.00041
    O2       Y     0.03836  0.03425  0.04585 -0.01151  0.00459  0.00269
    O2       Z     0.01323 -0.01652  0.01232  0.02493  0.00252  0.00064
    C3       X    -0.00456  0.02650 -0.01686  0.01553  0.00036  0.00074
    C3       Y    -0.05075 -0.04158 -0.05982  0.01796 -0.00205 -0.00215
    C3       Z    -0.01468 -0.01715  0.00264 -0.03913 -0.00179 -0.00209
    N4       X    -0.01224 -0.01321  0.02188 -0.00051  0.00135 -0.00026
    N4       Y     0.15836 -0.01359 -0.03511 -0.06872 -0.00243 -0.00147
    N4       Z    -0.00204 -0.04195  0.03881 -0.06222 -0.00122 -0.00253
    C5       X    -0.00752 -0.11381  0.07030  0.07931  0.00006 -0.00311
    C5       Y    -0.02732 -0.05301  0.03394  0.08807  0.00016 -0.00121
    C5       Z    -0.03617 -0.03601  0.02387 -0.00833 -0.00046 -0.00088
    C6       X     0.01046  0.06254 -0.03688 -0.05608 -0.00096 -0.00076
    C6       Y     0.01898  0.03754 -0.01994  0.04926  0.00324 -0.00033
    C6       Z     0.08299  0.00784 -0.01081 -0.02206  0.00292  0.00282
    C7       X    -0.03275  0.08213 -0.06100 -0.02747  0.00513  0.00303
    C7       Y    -0.11459  0.01784 -0.02203 -0.14431 -0.00082  0.00002
    C7       Z    -0.01474  0.10859 -0.08638  0.14690  0.00452  0.00436
    N8       X     0.06406 -0.04990  0.04510  0.00729 -0.00030 -0.00222
    N8       Y    -0.00828  0.00935 -0.01212  0.04661 -0.00059  0.00042
    N8       Z    -0.04178 -0.00739  0.00331 -0.02408 -0.00178 -0.00028
    H9       X    -0.00139 -0.02267 -0.03593 -0.08059  0.05566  0.01943
    H9       Y    -0.12978 -0.03884  0.02105  0.02312  0.02518  0.00988
    H9       Z     0.23772  0.07252 -0.05270  0.00430 -0.00991 -0.00453
    H10      X    -0.04562  0.12285 -0.04414 -0.07677 -0.04288 -0.03465
    H10      Y     0.21001  0.11647 -0.04834  0.10546 -0.02438 -0.01615
    H10      Z     0.13552  0.05202 -0.02422 -0.00904 -0.01819 -0.01174
    H11      X    -0.00181 -0.00695 -0.04364 -0.01667 -0.00087 -0.00108
    H11      Y    -0.07284  0.52275  0.71546  0.01961  0.01891  0.02892
    H11      Z    -0.03081 -0.03984  0.18801 -0.02719  0.00382  0.00004
    H12      X     0.01933  0.04003 -0.03142  0.06816  0.00303  0.00247
    H12      Y    -0.24122 -0.10974 -0.14852  0.07335 -0.00596 -0.00515
    H12      Z    -0.02903 -0.02342  0.00022 -0.04174 -0.00216 -0.00251
    P13      X    -0.00015  0.00004 -0.00005  0.00039  0.00823  0.01638
    P13      Y     0.00051  0.00184 -0.00037 -0.00039  0.02091  0.03413
    P13      Z     0.00006 -0.00053 -0.00041 -0.00016  0.03159  0.05524
    P14      X    -0.00107 -0.00081  0.00071 -0.00018 -0.01106  0.01026
    P14      Y     0.00125 -0.00164  0.00032 -0.00031 -0.04399  0.04784
    P14      Z     0.00017 -0.00218 -0.00025 -0.00025 -0.02787  0.02431
    C15      X    -0.00068  0.00386  0.00364  0.00134 -0.07303 -0.09097
    C15      Y    -0.00029 -0.00011  0.00276  0.00071 -0.06270 -0.08327
    C15      Z     0.00003  0.00344  0.00164  0.00052  0.01292 -0.06525
    C16      X     0.00003  0.00184  0.00098  0.00053 -0.04653  0.00652
    C16      Y     0.00041 -0.00269  0.00036 -0.00055  0.03591 -0.08251
    C16      Z     0.00126  0.00052 -0.00026 -0.00096  0.11648 -0.08203
    H17      X     0.00042 -0.02044  0.01347  0.00718 -0.00426  0.00159
    H17      Y    -0.03092 -0.12318  0.06303  0.00275 -0.03986  0.02490
    H17      Z    -0.02645 -0.00019 -0.01987  0.03255 -0.02902 -0.00702
    H18      X    -0.01724 -0.04172  0.04299  0.01370 -0.01014 -0.02363
    H18      Y     0.00124  0.00553 -0.00723 -0.00238  0.01121  0.00385
    H18      Z     0.03458 -0.11645 -0.00246 -0.01809  0.13368  0.08035
    C19      X    -0.00053 -0.00214 -0.00058 -0.00004 -0.01276 -0.02350
    C19      Y     0.00019  0.00327  0.00054  0.00050  0.02124  0.03910
    C19      Z    -0.00020 -0.00235  0.00020 -0.00008 -0.00527 -0.00927
    C20      X    -0.00100 -0.00163 -0.00144 -0.00280  0.06180  0.06974
    C20      Y    -0.00127 -0.00001 -0.00006 -0.00006  0.00275  0.00796
    C20      Z     0.00043 -0.00188  0.00224 -0.00102 -0.03332 -0.03222
    C21      X    -0.00104  0.00056  0.00210 -0.00036  0.06871 -0.05216
    C21      Y    -0.00027  0.00022  0.00068  0.00017  0.01516 -0.00784
    C21      Z     0.00013 -0.00103 -0.00099  0.00001 -0.03884  0.03269
    C22      X     0.00209 -0.00644 -0.00201  0.00038 -0.02817  0.03832
    C22      Y     0.00277  0.00466  0.00099  0.00116  0.01533 -0.02169
    C22      Z    -0.00044 -0.00349 -0.00073 -0.00059 -0.02113  0.02628
    H23      X    -0.00026 -0.00211 -0.00016  0.00022 -0.05706 -0.09426
    H23      Y     0.00016  0.00311  0.00073  0.00056  0.04506  0.08009
    H23      Z    -0.00120 -0.00180 -0.00255 -0.00118 -0.03766 -0.08358
    H24      X     0.00148 -0.00254 -0.00469 -0.00612  0.03813 -0.01484
    H24      Y    -0.01012  0.00107 -0.00237  0.00283  0.01359 -0.00981
    H24      Z     0.00146 -0.00186  0.00338 -0.00081 -0.02964 -0.00937
    H25      X    -0.00085  0.00041  0.00219  0.00117  0.03901  0.00440
    H25      Y    -0.00016  0.00012  0.00057  0.00000  0.01797 -0.01246
    H25      Z    -0.00272  0.00180  0.00190  0.00013 -0.02925 -0.01962
    H26      X     0.00086 -0.00499  0.00157 -0.00031 -0.08216  0.08344
    H26      Y    -0.00014  0.00826  0.00087  0.00041  0.08242 -0.09968
    H26      Z     0.00033 -0.00422 -0.00111 -0.00050 -0.02746  0.03491
    H27      X     0.00140 -0.00679 -0.00107  0.00044 -0.01414  0.03239
    H27      Y     0.00482  0.00795  0.00005  0.00150  0.03079 -0.05561
    H27      Z    -0.00057 -0.00249  0.00098  0.00046  0.01724 -0.00319
    H28      X     0.00822 -0.00246 -0.00609  0.00022  0.01983 -0.03019
    H28      Y     0.00130  0.00326  0.00214  0.00150 -0.00595  0.00576
    H28      Z    -0.00034 -0.00094 -0.00188 -0.00254  0.03505 -0.03842
    H29      X    -0.00302  0.00755  0.00466  0.00103  0.06313 -0.10008
    H29      Y    -0.00206  0.00181  0.00181 -0.00008  0.02737 -0.05434
    H29      Z     0.00073 -0.00156 -0.00132  0.00005 -0.04364  0.04809
    H30      X    -0.00037 -0.00220 -0.00000 -0.00185  0.08452 -0.05951
    H30      Y     0.00054  0.00031 -0.00057 -0.00152  0.02936 -0.03661
    H30      Z    -0.00028  0.00424  0.00129  0.00090 -0.05166  0.01560
    H31      X    -0.00045 -0.00311 -0.00176 -0.00163 -0.01608 -0.03981
    H31      Y     0.00078  0.00335  0.00209  0.00166 -0.01067  0.00017
    H31      Z    -0.00012 -0.00432 -0.00211 -0.00307 -0.01105 -0.04016
    H32      X    -0.00047  0.00144  0.00081  0.00214 -0.00315  0.01115
    H32      Y    -0.00110  0.00149 -0.00176 -0.00014 -0.02386 -0.06130
    H32      Z     0.00002 -0.00245  0.00043 -0.00027  0.00199  0.00500
    H33      X    -0.00557  0.00266  0.00052  0.00003  0.05077  0.10021
    H33      Y     0.00115 -0.00235 -0.00075 -0.00164  0.00943 -0.00169
    H33      Z    -0.00302 -0.00028 -0.00191  0.00107 -0.03486 -0.09084
    H34      X     0.00167 -0.00527 -0.00213 -0.00264  0.07786  0.06762
    H34      Y     0.00396 -0.00379 -0.00012 -0.00165  0.00878 -0.01191
    H34      Z     0.00540 -0.00100  0.00266 -0.00310 -0.05306 -0.06930
    H35      X    -0.00105  0.00612  0.00446  0.00148 -0.12973 -0.08589
[...]
    N8       X    -0.00001 -0.00004  0.00002  0.00001  0.00001  0.00012
    N8       Y     0.00002  0.00002 -0.00002 -0.00002 -0.00001 -0.00011
    N8       Z     0.00003  0.00005 -0.00001 -0.00001 -0.00001 -0.00007
    H9       X     0.00001 -0.00089 -0.00017  0.00029  0.00014 -0.00031
    H9       Y    -0.00027  0.00392  0.00035 -0.00110 -0.00135  0.00234
    H9       Z    -0.00020  0.00452  0.00038 -0.00097 -0.00139  0.00227
    H10      X    -0.00009  0.00159 -0.00008 -0.00039 -0.00030  0.00073
    H10      Y    -0.00011  0.00175  0.00002 -0.00043 -0.00039  0.00093
    H10      Z     0.00004 -0.00839 -0.00010  0.00091  0.00157 -0.00262
    H11      X    -0.00005 -0.00006  0.00041  0.00011  0.00015  0.00001
    H11      Y    -0.00001 -0.00003 -0.00027  0.00001  0.00001 -0.00000
    H11      Z    -0.00015  0.00003  0.00011  0.00011  0.00001  0.00016
    H12      X     0.00077 -0.00032  0.00004 -0.00007  0.00035 -0.00006
    H12      Y    -0.00046  0.00014 -0.00002  0.00003 -0.00018  0.00002
    H12      Z     0.00733 -0.00220  0.00027 -0.00057  0.00244 -0.00074
    P13      X     0.00024  0.00012  0.00000  0.00006 -0.00005 -0.00000
    P13      Y    -0.00012  0.00019  0.00001  0.00021 -0.00015 -0.00001
    P13      Z    -0.00018  0.00022  0.00001  0.00024 -0.00016 -0.00000
    P14      X     0.00027  0.00001  0.00014 -0.00005 -0.00006  0.00021
    P14      Y     0.00005  0.00001  0.00019  0.00019  0.00023 -0.00000
    P14      Z    -0.00002  0.00000  0.00017  0.00013  0.00016 -0.00023
    C15      X     0.04288 -0.00127 -0.00019 -0.00028 -0.00016  0.00019
    C15      Y    -0.01112  0.00040  0.00003  0.00000  0.00003 -0.00006
    C15      Z    -0.04471  0.00199  0.00018  0.00077 -0.00032 -0.00013
    C16      X     0.05739 -0.00009 -0.00053  0.00045  0.00040  0.00143
    C16      Y     0.02620 -0.00007 -0.00002  0.00024  0.00027  0.00012
    C16      Z    -0.00967 -0.00001  0.00001 -0.00015 -0.00013 -0.00020
    H17      X    -0.00150 -0.00026 -0.00022  0.00150  0.00030  0.00026
    H17      Y     0.00036  0.00000  0.00005 -0.00006 -0.00047  0.00002
    H17      Z     0.00009  0.00013  0.00002 -0.00016  0.00028 -0.00000
    H18      X     0.00003  0.00028 -0.00015  0.00020 -0.00025  0.00020
    H18      Y    -0.00041 -0.00012 -0.00060 -0.00128  0.00016  0.00021
    H18      Z     0.00006 -0.00008  0.00008 -0.00004  0.00009 -0.00009
    C19      X    -0.00090 -0.00265 -0.00003  0.01586 -0.01214  0.00006
    C19      Y    -0.00031 -0.00757 -0.00001  0.04755 -0.03662  0.00011
    C19      Z     0.00084 -0.00746  0.00002  0.04869 -0.03760  0.00006
    C20      X     0.00063  0.04017  0.00009  0.00391 -0.00309 -0.00049
    C20      Y     0.00200  0.05569  0.00026  0.00514 -0.00401  0.00079
    C20      Z     0.00006  0.05481  0.00014  0.00541 -0.00427 -0.00060
    C21      X    -0.00051  0.00004 -0.00055 -0.00370 -0.00506 -0.00275
    C21      Y     0.00050  0.00006 -0.00559  0.04707  0.06123 -0.00045
    C21      Z    -0.00120  0.00011 -0.00493  0.02672  0.03434 -0.00576
    C22      X    -0.00066 -0.00003  0.03407  0.00284  0.00382  0.05631
    C22      Y    -0.00013 -0.00019  0.06548  0.00354  0.00468  0.02013
    C22      Z     0.00136 -0.00028  0.04896  0.00097  0.00122 -0.06586
    H23      X     0.00120  0.03624  0.00003 -0.22376  0.17230 -0.00054
    H23      Y     0.00341  0.07721  0.00001 -0.48861  0.37613 -0.00113
    H23      Z     0.00103  0.00902  0.00001 -0.05618  0.04323 -0.00016
    H24      X    -0.00060 -0.13998 -0.00038 -0.01318  0.01040  0.00102
    H24      Y     0.00010 -0.10268 -0.00026 -0.01048  0.00822  0.00096
    H24      Z     0.00114 -0.60266 -0.00172 -0.06022  0.04726  0.00443
    H25      X    -0.00172 -0.00007  0.00413 -0.04588 -0.05959 -0.00037
    H25      Y    -0.00738 -0.00067  0.04908 -0.40584 -0.52720  0.00618
    H25      Z     0.00032 -0.00001  0.00174 -0.01353 -0.01767 -0.00081
    H26      X    -0.00099  0.00016 -0.03040 -0.00085 -0.00103  0.04184
    H26      Y    -0.00205  0.00044 -0.08218 -0.00200 -0.00259  0.08737
    H26      Z    -0.01076  0.00285 -0.58898 -0.01788 -0.02309  0.51662
    H27      X     0.00752 -0.00029 -0.21010 -0.02445 -0.03322 -0.67899
    H27      Y     0.00220 -0.00005 -0.03731 -0.00546 -0.00746 -0.15524
    H27      Z    -0.00434  0.00011  0.11210  0.01179  0.01601  0.31337
    H28      X     0.00040  0.00047 -0.16477 -0.00789 -0.01045 -0.03518
    H28      Y     0.00105  0.00179 -0.66384 -0.03637 -0.04777 -0.17264
    H28      Z     0.00046  0.00030 -0.10716 -0.00601 -0.00797 -0.04336
    H29      X    -0.00036  0.00000  0.00234 -0.01173 -0.01523  0.00058
    H29      Y     0.00355 -0.00034  0.01711 -0.10648 -0.13737  0.01694
    H29      Z     0.01253 -0.00117  0.05819 -0.36966 -0.47724  0.05376
    H30      X     0.00598 -0.00039 -0.00174  0.10113  0.13436  0.02724
    H30      Y    -0.00356  0.00023 -0.00086 -0.05055 -0.06742 -0.01711
    H30      Z     0.00399 -0.00018 -0.00208  0.06412  0.08494  0.01612
    H31      X     0.00879 -0.01279  0.00036  0.08752 -0.06823 -0.00009
    H31      Y     0.00092 -0.00213 -0.00000  0.01039 -0.00803  0.00000
    H31      Z    -0.00480  0.00426 -0.00018 -0.03441  0.02696  0.00007
    H32      X    -0.00058  0.00758 -0.00005 -0.05449  0.04203 -0.00004
    H32      Y    -0.00136  0.01396 -0.00001 -0.08842  0.06828 -0.00013
    H32      Z    -0.00544  0.07484 -0.00023 -0.49321  0.38045 -0.00060
    H33      X    -0.01126 -0.29165 -0.00118 -0.02791  0.02186 -0.00174
    H33      Y    -0.02267 -0.63065 -0.00251 -0.05922  0.04642 -0.00330
    H33      Z    -0.00099 -0.03806 -0.00017 -0.00335  0.00263 -0.00042
    H34      X     0.00218 -0.04601  0.00041 -0.00559  0.00465  0.00659
    H34      Y    -0.00226  0.06854 -0.00033  0.00722 -0.00594 -0.00702
    H34      Z     0.00126 -0.01642  0.00023 -0.00249  0.00208  0.00326
    H35      X    -0.48541  0.01088  0.00204  0.00347  0.00175 -0.00275
    H35      Y     0.04814 -0.00164 -0.00033 -0.00048  0.00007  0.00047
    H35      Z     0.10477 -0.00313 -0.00035 -0.00042 -0.00054  0.00039
    H36      X    -0.02823  0.00053  0.00013  0.00053 -0.00024 -0.00008
    H36      Y     0.08844 -0.00526 -0.00028 -0.00273  0.00170  0.00030
    H36      Z     0.42931 -0.02163 -0.00230 -0.00911  0.00477  0.00184
    H37      X    -0.43960  0.00039  0.00389 -0.00183 -0.00100 -0.01334
    H37      Y     0.09566 -0.00025 -0.00034  0.00012 -0.00025  0.00274
    H37      Z     0.15164  0.00015 -0.00164  0.00011 -0.00025  0.00582
    H38      X    -0.24781  0.00067 -0.00043 -0.00259 -0.00208 -0.00307
    H38      Y    -0.40611  0.00103  0.00013 -0.00488 -0.00360 -0.00470
    H38      Z    -0.03883  0.00006 -0.00105 -0.00124 -0.00154 -0.00066
  
  vibration #          103      104      105      106      107      108
                  -------- -------- -------- -------- -------- --------
  frequencies      3156.81  3161.23  3164.25  3166.72  3262.97  3588.04
  intensities         0.49     0.81     0.12     1.28     0.83    88.84
  reduc. mass         0.55     0.60     0.58     0.52     0.57     0.94
  force const         3.23     3.53     3.44     3.05     3.59     7.13
    Rh1      X     0.00001 -0.00000  0.00001  0.00004  0.00003 -0.00000
    Rh1      Y    -0.00001  0.00001 -0.00000 -0.00004  0.00002  0.00001
    Rh1      Z    -0.00000 -0.00000 -0.00000  0.00001 -0.00004 -0.00001
    O2       X     0.00001  0.00002  0.00002 -0.00004 -0.00003  0.00136
    O2       Y     0.00001 -0.00001  0.00000  0.00003 -0.00000  0.00007
    O2       Z    -0.00000 -0.00000  0.00003 -0.00010 -0.00005  0.00034
    C3       X     0.00000 -0.00003 -0.00005  0.00018  0.00011  0.00076
    C3       Y    -0.00000 -0.00001  0.00001 -0.00009  0.00017 -0.00004
    C3       Z     0.00005  0.00002 -0.00005  0.00066 -0.00027 -0.00239
    N4       X    -0.00000 -0.00000  0.00001  0.00007 -0.00013 -0.06368
    N4       Y     0.00000 -0.00002 -0.00000  0.00020  0.00006  0.00134
    N4       Z    -0.00000 -0.00001 -0.00000 -0.00011 -0.00038 -0.03175
    C5       X    -0.00002  0.00015 -0.00000 -0.00172 -0.00047  0.00040
    C5       Y    -0.00001 -0.00021 -0.00008  0.00331  0.00068 -0.00037
    C5       Z    -0.00002 -0.00002  0.00004 -0.00156  0.00042  0.00063
    C6       X    -0.00002  0.00006  0.00003 -0.00213 -0.02147  0.00005
    C6       Y    -0.00030  0.00203  0.00132 -0.06519  0.01347 -0.00019
    C6       Z    -0.00002 -0.00028 -0.00010  0.00195  0.09083  0.00033
    C7       X     0.00001 -0.00003  0.00003 -0.00021  0.00019  0.00002
    C7       Y     0.00001  0.00012 -0.00002  0.00024 -0.00023  0.00012
    C7       Z    -0.00000  0.00033 -0.00000  0.00028  0.00005 -0.00003
    N8       X     0.00000  0.00008 -0.00001  0.00014  0.00005 -0.00002
    N8       Y     0.00000 -0.00006  0.00001 -0.00016 -0.00001 -0.00006
    N8       Z     0.00000 -0.00003  0.00002 -0.00015 -0.00008 -0.00005
    H9       X    -0.00046  0.00302  0.00201 -0.09944  0.07014 -0.00033
    H9       Y     0.00281 -0.01651 -0.01091  0.55055 -0.40731  0.00041
    H9       Z     0.00271 -0.01621 -0.01048  0.53245 -0.38168 -0.00033
    H10      X     0.00064 -0.00454 -0.00303  0.14390  0.18489 -0.00011
    H10      Y     0.00077 -0.00579 -0.00370  0.17726  0.23837 -0.00044
    H10      Z    -0.00238  0.01823  0.01106 -0.53946 -0.69195  0.00031
    H11      X     0.00002  0.00011  0.00001 -0.00055  0.00009  0.85078
    H11      Y    -0.00005  0.00008  0.00001 -0.00101 -0.00009 -0.01298
    H11      Z    -0.00001  0.00004 -0.00005  0.00135 -0.00065  0.44456
    H12      X    -0.00003 -0.00001  0.00011 -0.00078  0.00020 -0.00116
    H12      Y     0.00003  0.00008 -0.00006  0.00035 -0.00009 -0.00025
    H12      Z    -0.00058 -0.00025  0.00058 -0.00575  0.00130  0.01058
    P13      X     0.00001  0.00009  0.00026  0.00003  0.00000 -0.00002
    P13      Y     0.00000 -0.00017  0.00010 -0.00001 -0.00001  0.00000
    P13      Z    -0.00001  0.00008 -0.00020 -0.00002 -0.00000 -0.00002
    P14      X     0.00012 -0.00001  0.00001  0.00000 -0.00001  0.00001
    P14      Y    -0.00015  0.00000 -0.00001  0.00003 -0.00000 -0.00003
    P14      Z     0.00023 -0.00002  0.00000 -0.00002  0.00004 -0.00001
    C15      X     0.00116  0.00009  0.00113 -0.00001 -0.00000 -0.00000
    C15      Y    -0.00022  0.00011 -0.00032  0.00000 -0.00001 -0.00000
    C15      Z    -0.00071  0.00003 -0.00072  0.00001  0.00002  0.00002
    C16      X     0.00074  0.00172  0.00030  0.00014  0.00001  0.00001
    C16      Y     0.00052  0.00021  0.00004  0.00009  0.00002  0.00001
    C16      Z    -0.00021 -0.00043 -0.00005 -0.00004 -0.00001 -0.00000
    H17      X    -0.00207  0.00039 -0.00261 -0.00085 -0.00038  0.00010
    H17      Y     0.00005 -0.00002  0.00036 -0.00020  0.00005 -0.00010
    H17      Z     0.00004  0.00019 -0.00040  0.00004  0.00001 -0.00040
    H18      X     0.00008  0.00002  0.00043 -0.00331  0.00157 -0.00027
    H18      Y     0.00047 -0.00005 -0.00024  0.00843 -0.00086 -0.00023
    H18      Z     0.00015  0.00003  0.00024 -0.00047 -0.00134 -0.00039
    C19      X    -0.00032 -0.00598  0.06997  0.00124  0.00002  0.00000
    C19      Y    -0.00027 -0.00255  0.02551  0.00051  0.00003  0.00000
    C19      Z     0.00002  0.00411 -0.04806 -0.00075  0.00001  0.00002
    C20      X    -0.00017  0.03702  0.00325  0.00073 -0.00011  0.00001
    C20      Y     0.00016 -0.06829 -0.00529 -0.00279 -0.00026  0.00001
    C20      Z    -0.00020  0.04250  0.00343  0.00099 -0.00002  0.00004
    C21      X     0.04882  0.00011  0.00020 -0.00025  0.00002  0.00000
    C21      Y    -0.03383 -0.00010 -0.00020  0.00045 -0.00003  0.00001
    C21      Z     0.06559  0.00015  0.00021 -0.00012  0.00002 -0.00001
    C22      X     0.00415  0.00075  0.00006 -0.00024 -0.00001 -0.00003
    C22      Y     0.00237  0.00031  0.00005 -0.00004 -0.00000 -0.00001
    C22      Z    -0.00286 -0.00073 -0.00001  0.00027  0.00002 -0.00003
    H23      X     0.00142  0.01543 -0.15302 -0.00289 -0.00007 -0.00001
    H23      Y     0.00319  0.03670 -0.36059 -0.00686 -0.00025  0.00002
    H23      Z     0.00044  0.00576 -0.05725 -0.00111 -0.00007 -0.00003
    H24      X     0.00035 -0.06358 -0.00505 -0.00127  0.00007 -0.00016
    H24      Y     0.00032 -0.06451 -0.00428 -0.00169 -0.00028 -0.00001
    H24      Z     0.00155 -0.27587 -0.01918 -0.00522  0.00015  0.00005
    H25      X     0.03154  0.00007  0.00018 -0.00015 -0.00010  0.00004
    H25      Y     0.20602  0.00064  0.00131 -0.00292 -0.00000  0.00012
    H25      Z     0.02074  0.00006  0.00008 -0.00023  0.00003  0.00004
    H26      X     0.00101  0.00050  0.00001 -0.00013 -0.00004  0.00003
    H26      Y     0.00297  0.00089  0.00000 -0.00035  0.00001 -0.00021
    H26      Z     0.01537  0.00538 -0.00002 -0.00178 -0.00035  0.00038
    H27      X    -0.04989 -0.00891 -0.00064  0.00319  0.00011  0.00024
    H27      Y    -0.01056 -0.00206 -0.00014  0.00075  0.00002 -0.00002
    H27      Z     0.02267  0.00415  0.00030 -0.00149 -0.00002 -0.00012
    H28      X    -0.00492 -0.00054 -0.00012 -0.00007  0.00003  0.00013
    H28      Y    -0.01895 -0.00256 -0.00047  0.00075 -0.00019  0.00020
    H28      Z    -0.00392 -0.00063 -0.00010  0.00006 -0.00003  0.00015
    H29      X    -0.00357 -0.00007 -0.00001 -0.00010  0.00005 -0.00013
    H29      Y    -0.15352 -0.00032 -0.00039  0.00003 -0.00004 -0.00012
    H29      Z    -0.46206 -0.00081 -0.00110 -0.00013 -0.00021  0.00016
    H30      X    -0.60901 -0.00141 -0.00258  0.00341 -0.00022 -0.00007
    H30      Y     0.35312  0.00082  0.00145 -0.00185  0.00010  0.00000
    H30      Z    -0.34343 -0.00082 -0.00141  0.00193 -0.00011  0.00000
    H31      X     0.00235  0.05500 -0.72333 -0.01275 -0.00023 -0.00004
    H31      Y    -0.00000  0.00107 -0.00260  0.00003  0.00001  0.00001
    H31      Z    -0.00127 -0.02915  0.37001  0.00647  0.00011 -0.00002
    H32      X     0.00004 -0.00433  0.04173  0.00067  0.00000  0.00005
    H32      Y     0.00006 -0.00537  0.05694  0.00077 -0.00011 -0.00005
    H32      Z     0.00067 -0.02531  0.26350  0.00379 -0.00013  0.00004
    H33      X    -0.00029  0.16221  0.01007  0.00905  0.00172  0.00001
    H33      Y    -0.00040  0.31927  0.02045  0.01895  0.00413 -0.00005
    H33      Z    -0.00004  0.03348  0.00219  0.00214  0.00074 -0.00005
    H34      X     0.00183 -0.54021 -0.04802 -0.01640 -0.00015  0.00013
    H34      Y    -0.00193  0.56001  0.04899  0.01652 -0.00024 -0.00006
    H34      Z     0.00091 -0.26701 -0.02276 -0.00811 -0.00016  0.00001
    H35      X    -0.01393  0.00091 -0.01290  0.00011 -0.00001 -0.00002
    H35      Y     0.00171  0.00036  0.00027 -0.00006 -0.00001  0.00002
    H35      Z     0.00278 -0.00018  0.00291  0.00001  0.00001 -0.00001
    H36      X    -0.00039  0.00018 -0.00035  0.00007  0.00004  0.00004
    H36      Y     0.00121 -0.00052  0.00160  0.00003  0.00002  0.00007
    H36      Z     0.00534 -0.00105  0.00635  0.00008 -0.00019  0.00004
    H37      X    -0.00327 -0.01738 -0.00337 -0.00100 -0.00005 -0.00002
    H37      Y     0.00044  0.00379  0.00097  0.00026 -0.00001 -0.00001
    H37      Z     0.00056  0.00567  0.00092  0.00037 -0.00002  0.00003
    H38      X    -0.00360 -0.00377 -0.00104 -0.00058 -0.00002  0.00003
    H38      Y    -0.00642 -0.00607 -0.00199 -0.00096 -0.00003  0.00005
    H38      Z    -0.00055 -0.00050 -0.00008  0.00010  0.00004  0.00006
  
  Number of imaginary frequencies:   1
   
  Writing vibrational animation data to 3DMPEConformation2fromJCTCSI_isomer2.vib
  Writing vibrational spectrum data to 3DMPEConformation2fromJCTCSI_isomer2_vib.spm
  rotational symmetry number:  1

  rotational temperatures (K):      0.021467      0.017225      0.014654
   
    1 vibrational frequencies below  10.0 cm-1 not included in zero-point
  energy or thermochemical analysis.  Set freqcut to change the frequency
  cutoff value.

  vibrational temperatures:
       mode:      2        3        4        5        6        7
  temp. (K):    51.77    91.31   117.12   126.87   167.70   179.12
   
       mode:      8        9       10       11       12       13
  temp. (K):   180.33   216.33   241.57   251.74   271.34   274.54
   
       mode:     14       15       16       17       18       19
  temp. (K):   285.36   296.94   305.08   316.70   320.00   336.72
   
       mode:     20       21       22       23       24       25
  temp. (K):   365.17   377.80   393.19   407.83   439.46   467.35
   
       mode:     26       27       28       29       30       31
  temp. (K):   482.26   524.01   548.66   622.73   642.80   691.26
   
       mode:     32       33       34       35       36       37
  temp. (K):   819.83   830.00   862.14   906.63   924.91   959.07
   
       mode:     38       39       40       41       42       43
  temp. (K):  1010.53  1025.04  1029.30  1063.29  1065.42  1074.84
   
       mode:     44       45       46       47       48       49
  temp. (K):  1161.22  1173.33  1195.22  1252.86  1266.20  1275.33
   
       mode:     50       51       52       53       54       55
  temp. (K):  1297.05  1339.41  1346.77  1364.60  1392.58  1414.04
   
       mode:     56       57       58       59       60       61
  temp. (K):  1423.33  1452.39  1467.72  1501.07  1616.47  1629.21
   
       mode:     62       63       64       65       66       67
  temp. (K):  1695.91  1729.26  1828.19  1860.94  1894.68  1933.45
   
       mode:     68       69       70       71       72       73
  temp. (K):  1937.92  1954.70  1959.24  1963.97  2013.77  2098.64
   
       mode:     74       75       76       77       78       79
  temp. (K):  2102.42  2109.40  2114.55  2118.59  2123.06  2123.43
   
       mode:     80       81       82       83       84       85
  temp. (K):  2128.05  2133.65  2137.35  2152.01  2203.31  2430.28
   
       mode:     86       87       88       89       90       91
  temp. (K):  2749.28  2982.60  3330.60  4397.60  4399.88  4402.36
   
       mode:     92       93       94       95       96       97
  temp. (K):  4404.58  4406.18  4407.24  4474.08  4483.27  4488.32
   
       mode:     98       99      100      101      102      103
  temp. (K):  4520.23  4522.19  4532.25  4532.26  4539.32  4541.93
   
       mode:    104      105      106      107      108
  temp. (K):  4548.30  4552.65  4556.20  4694.68  5162.39
   
   
  Thermodynamic properties calculated assuming an ideal gas

  In the table below, the units for temperature
  are kelvins, the units for U, H, and G are
  kJ/mol and the units for Cv and S are J/(mol K)

  The zero point energy (ZPE):    808.616 kJ/mol
  is not included in U, H, or G in the table below
  
 
  =============================================================================
  Thermodynamic properties for P =     1.00 atm, calculated at   1 temperatures


  T =   298.15 K, P =     1.00 atm
   
                  U         Cv          S          H          G        ln(Q)
              =========  =========  =========  =========  =========  =========
  trans.          3.718     12.472    181.841      6.197    -48.018   19.37042
  rot.            3.718     12.472    138.698      3.718    -37.635   15.18157
  vib.           48.776    310.754    302.462     48.776    -41.403   16.70192
  elec.           0.000      0.000      0.000      0.000      0.000    0.00000
  ----------------------------------------------------------------------------
  total          56.213    335.698    623.002     58.692   -127.056   51.25391
   
   Total internal energy, Utot(SCFE + ZPE + U):   -1370.789687 hartrees
              Total enthalpy, Htot (Utot + pV):   -1370.788743 hartrees
    Total Gibbs free energy, Gtot (Htot - T*S):   -1370.859491 hartrees
   
  Peak memory usage:   1703 Mb
  
  end of program freq
   
 Time(freq)  user:        1.7  user+sys:        1.7  wallclock:        2.1

 Total cpu seconds     user:    6939.793   user+sys:    6939.793
  
 Total elapsed time:    2170 seconds

Job 3DMPEConformation2fromJCTCSI_isomer2 completed on seskscpn115.prim.scp at Wed Oct 18 10:57:13 2023
