Job 4RR-Me-DuPHOSpro-RfromJCTCSI_isomer3 started on seskscpn117.prim.scp at Wed Oct 18 10:21:03 2023
jobid: seskscpn324-0-652fb16b

  +--------------------------------------------------------------------+
  |  Jaguar version 10.6, release  12                                  |
  |                                                                    |
  |  Copyright Schrodinger, Inc.                                       |
  |  All Rights Reserved.                                              |
  |                                                                    |
  |  The following have contributed to Jaguar (listed alphabetically): |
  |  Mike Beachy, Art Bochevarov, Dale Braden, Yixiang Cao,            |
  |  Alan Chien, Chris Cortis, Rich Friesner, Bill Goddard,            |
  |  Hod Greeley, Tom Hughes, Leif Jacobson, Jean-Marc Langlois,       |
  |  Daniel Levine, Daniel Mainz, Rob Murphy, Dean Philipp,            |
  |  Tom Pollard, Murco Ringnalda, Mark Watson, Haoyu Yu.              |
  |                                                                    |
  |  Use of this program should be acknowledged in publications as:    |
  |                                                                    |
  |  Jaguar, version 10.6, Schrodinger, Inc., New York, NY, 2019.      |
  |                                                                    |
  |  A. D. Bochevarov, E. Harder, T. F. Hughes, J. R. Greenwood,       |
  |  D. A. Braden, D. M. Philipp, D. Rinaldo, M. D. Halls,             |
  |  J. Zhang, R. A. Friesner, "Jaguar: A High-Performance Quantum     |
  |  Chemistry Software Program with Strengths in Life and Materials   |
  |  Sciences", Int. J. Quantum Chem., 2013, 113(18), 2110-2142.       |
  +--------------------------------------------------------------------+
  
  start of program pre
  
  Job name: 4RR-Me-DuPHOSpro-RfromJCTCSI_isomer3
  Executables used: /opt/scp/software/schrodinger/2019-4/jaguar-v10.6/bin/Linux-x86_64
  Temporary files : /scratch/kzdq760/4RR-Me-DuPHOSpro-RfromJCTCSI_isomer3#seskscpn324-0-652fb16b
  Maestro file (input):  4RR-Me-DuPHOSpro-RfromJCTCSI_isomer3.mae
  Maestro file (output): 4RR-Me-DuPHOSpro-RfromJCTCSI_isomer3.01.mae
  
 Contents of input file: &gen section only
 ----------------Contents start----------------
&gen
isymm=0
basis=LACVP**
gdftgrad=-13
gdftmed=-13
icanorb=1
molchg=1
gdftfine=-13
dftname=B3LYP
eunit=2
ifreq=1
ncanorb=577
iacc=1
&
 -----------------Contents end-----------------
 
  basis set:             lacvp**                         
  net molecular charge:    1
  multiplicity:            1
  
  keygrid settings 
    wispc.....   7.500E-01
    ldens.....   0
    denspc....   7.500E-01
  
   grid     daf set  nls  grid set  Q type
  ------    -------  ---  --------  ------
  coarse       1      1       1        1
  medium       2      2       2        1
  fine         3      2       3        0
  ultrafine    4      2       4        1
  charge       0      1       0        1
  gradient     5      2       4        1
  density      0      1       0        0
  DFT-fine     0      1     -13        0
  DFT-med.     0      1     -13        0
  DFT-grad     0      1     -13        0
  DFT-der2     0      1      -8        0
  DFT-cphf     0      1      -9        0
  LMP2-enrg    4      2       4        1
  LMP2-grad    5      2       2        1
  DFT-cphf2    0      1     -15        0
  PBF-dens     0      1       0        0
  plotting     0      1       0        0
  Rel-grad     0      1     -17        0
  
  idftgrdm  100
  ndftgrdm   50    0    0
  idftgrdf  111
  ndftgrdf   85    0    0
  idftgrdg  111
  ndftgrdg   80    3    0
  idftgrdu  433
  ndftgrdu  105    0    0
  idftgrdd  433
  ndftgrdd  105    0    0
  idftgrdc  433
  ndftgrdc   26    0    0
  idftgrdp  433
  ndftgrdp   18    0    0
  
  Using up to   4 threads per process
  
  This run will use ECP on 1 atom
  number of basis functions....          578
  
 Input geometry:
                                   angstroms
  atom               x                 y                 z
  Rh1           0.0000000000      0.0000000000      0.0000000000 
  O2            0.0000000000      0.0000000000      2.2297500000 
  C3            1.1304400000      0.0000000000      2.7545200000 
  N4            2.2646700000     -0.1131400000      2.0500700000 
  C5            2.2311200000     -0.3941100000      0.6355500000 
  C6            1.6214800000     -1.6074900000      0.2146500000 
  C7            3.2193300000      0.2631000000     -0.1526500000 
  N8            4.0518200000      0.7772800000     -0.7865500000 
  H9            1.4011200000     -2.3475600000      0.9779700000 
  H10           1.8985300000     -2.0120000000     -0.7521200000 
  H11           3.1560700000     -0.0984300000      2.5334900000 
  H12           1.2456500000      0.1008100000      3.8395400000 
  P13          -0.2385300000      0.1390100000     -2.2661000000 
  P14          -0.5582300000      2.3241500000      0.0408000000 
  C15          -1.0770300000      1.7335500000     -2.6517700000 
  C16          -1.1950700000      2.7104000000     -1.6421400000 
  H17          -1.5546300000     -0.1217700000     -0.1104400000 
  H18          -0.0919500000     -1.6074100000     -0.0905600000 
  C19          -1.1456300000     -1.2208700000     -3.2020900000 
  C20           1.3385300000      0.0391500000     -3.2998200000 
  C21          -1.9018300000      2.6471500000      1.3201800000 
  C22           0.5033200000      3.8043400000      0.5502600000 
  C23          -1.7952600000      3.9418100000     -1.9469000000 
  H24          -1.8935000000      4.7055900000     -1.1815100000 
  C25          -1.5617600000      2.0095900000     -3.9400800000 
  H26          -1.4686100000      1.2757900000     -4.7344600000 
  C27          -2.2836700000      4.2001700000     -3.2261100000 
  H28          -2.7558700000      5.1536900000     -3.4424100000 
  C29          -2.1663200000      3.2326000000     -4.2241800000 
  H30          -2.5420400000      3.4291500000     -5.2236900000 
  C31          -0.0834800000      4.2381900000      1.9126700000 
  H32           0.2066000000      5.2701300000      2.1379200000 
  H33           0.3366800000      3.6090600000      2.7089600000 
  C34          -1.6075100000      4.0622500000      1.8622700000 
  H35          -2.0668100000      4.1960800000      2.8478000000 
  H36          -2.0534000000      4.8183700000      1.2024900000 
  C37           0.9484100000     -0.8476300000     -4.5040600000 
  H38           1.8450600000     -1.2829100000     -4.9579300000 
  H39           0.4705900000     -0.2316500000     -5.2773000000 
  C40          -0.0289100000     -1.9221700000     -4.0090700000 
  H41           0.4966600000     -2.6403500000     -3.3648800000 
  H42          -0.4620100000     -2.4974900000     -4.8339700000 
  C43          -3.3432700000      2.4019200000      0.8704200000 
  H44          -3.4884000000      1.3742300000      0.5239800000 
  H45          -3.6432800000      3.0793300000      0.0657800000 
  H46          -4.0226500000      2.5632700000      1.7138700000 
  C47           2.0140500000      3.5724400000      0.5556000000 
  H48           2.2953700000      2.7886400000      1.2657400000 
  H49           2.5301700000      4.4913200000      0.8541400000 
  H50           2.3950800000      3.2836200000     -0.4271900000 
  C51           1.9901600000      1.3753700000     -3.6638200000 
  H52           2.2947200000      1.9347500000     -2.7756800000 
  H53           1.3228900000      2.0024400000     -4.2619200000 
  H54           2.8943300000      1.1884400000     -4.2518600000 
  C55          -2.0197200000     -2.1606400000     -2.3715300000 
  H56          -2.7980700000     -1.6212100000     -1.8250700000 
  H57          -1.4277300000     -2.7222100000     -1.6426400000 
  H58          -2.5113300000     -2.8816200000     -3.0331000000 
  H59          -1.6542700000      1.9198600000      2.1037100000 
  H60           2.0399000000     -0.5230000000     -2.6713000000 
  H61          -1.7909400000     -0.6833800000     -3.9075600000 
  H62           0.2675300000      4.5783200000     -0.1911600000 
   
  principal moments of inertia:
        amu*angstrom^2:     2898.66494     3135.48237     4281.39645
                g*cm^2: 4.81334578E-37 5.20659033E-37 7.10942518E-37
   
  rotational constants:
               cm^(-1):      0.00581565      0.00537641      0.00393741
                   GHz:      0.17434889      0.16118062      0.11804069
   
  Molecular weight:     507.12 amu
   
  Stoichiometry: RhC22P2N2H34O
  Molecular Point Group: C1      
  Point Group used: C1 (symmetry turned off)
  
  nuclear repulsion energy.......    3650.652182118 hartrees
  
  Detected an organometallic with only one TM atom. 
  
  Oxidation state on metal       1 is     3
  Formal multiplet on metal      1 is     1
  Formal charge on ligand        4 is    -1
  Formal multiplet on ligand     4 is     1
  Formal charge on ligand        5 is    -1
  Formal multiplet on ligand     5 is     1
  
 
  Will use High-Quality Initial guess for organometallics
       including d-d repulsion (iguess=30)
 
 Non-default options chosen:
   SCF calculation type: DFT(b3lyp)                  
   DFT=Becke_3_Parameter/HF+Slater+Becke88+VWN+LYP (B3LYP)
   Vibrational frequencies and related properties will be computed
      from analytic second derivatives
   IR intensities will be computed
   Thermochemical properties will be computed
   Thermochemical data will be printed in Joules
   Molecular symmetry not used
   Highest accuracy cutoffs used in SCF
  
 Temporary integer options set:
     21= -1  73=  2
  
   Fixing number of canonical orbitals to remain constant.
   Number of canonical orbitals to use:   577
  
  Peak memory usage:   1468 Mb
  
  end of program pre
   
 Time(pre)  user:        2.1  user+sys:        2.1  wallclock:        1.3
  
  start of program onee
  
  smallest eigenvalue of S:    4.773E-04
  Set cut 20/10 to   7.842344283548090E-004
  number of canonical orbitals.....          577
  Peak memory usage:   1510 Mb
  
  end of program onee
   
 Time(onee)  user:        2.6  user+sys:        2.6  wallclock:        0.8
  
  start of program hfig
  
  initial wavefunction generated automatically from atomic wavefunctions
  Only one state below 0.010000
  Skip d-d repulsion considerations 
 
  Irreducible     Total no   No of occupied orbitals 
  representation  orbitals   Shell_1  Shell_2    ...
  No Symm          577        117
  ------------------------
  Orbital occupation/shell    1.000
 
  Peak memory usage:   1444 Mb
  
  end of program hfig
   
 Time(hfig)  user:        1.2  user+sys:        1.2  wallclock:        0.7
  
  start of program probe
  
  Peak memory usage:   1427 Mb
  
  end of program probe
   
 Time(probe)  user:        1.0  user+sys:        1.0  wallclock:        0.4
  
  start of program grid
  
   grid     grid set  grid #  grid sym
  ------    --------  ------  --------
  coarse        0        0        1
  medium        2        1        1
  fine          0        0        1
  ultrafine     4        2        1
  charge        0        0        1
  gradient      4        2        1
  density       0        0        1
  DFT-fine    -13        3        1
  DFT-med.    -13        3        1
  DFT-grad    -13        3        1
  DFT-der2     -8        4        1
  DFT-cphf     -9        5        1
  LMP2-enrg     4        2        1
  LMP2-grad     2        1        1
  DFT-cphf2   -15        6        1
  PBF-dens      0        0        1
  plotting      0        0        1
  Rel-grad    -17        0        1
  
  number of gridpoints: 
     atom       Rh1       O2       C3       N4       C5       C6       C7
  grid # 1      299      115       83      102       93       83      101
  grid # 2      238      479      298      335      361      269      386
  grid # 3    35544    23820    15816    16030    15816    15816    15816
  grid # 4    32864    23252    13988    14170    13988    13988    13988
  grid # 5     1144      774      748      756      748      748      748
  grid # 6     2168      416      394      406      394      394      394
   
  number of gridpoints: 
     atom        N8       H9      H10      H11      H12      P13      P14
  grid # 1      118      112      107      116      117      607      613
  grid # 2      495      453      442      449      466      423      430
  grid # 3    16030    17074    17074    17074    17074    24032    24032
  grid # 4    14170    15058    15058    15058    15058    23016    23016
  grid # 5      756      786      786      786      786      722      722
  grid # 6      406      420      420      420      420      370      370
   
  number of gridpoints: 
     atom       C15      C16      H17      H18      C19      C20      C21
  grid # 1       92       93      100       99       79       80       80
  grid # 2      386      386      450      438      325      326      328
  grid # 3    15816    15816    17074    17074    15816    15816    15816
  grid # 4    13988    13988    15058    15058    13988    13988    13988
  grid # 5      748      748      786      786      748      748      748
  grid # 6      394      394      420      420      394      394      394
   
  number of gridpoints: 
     atom       C22      C23      H24      C25      H26      C27      H28
  grid # 1       79       93      107       93      107       96      118
  grid # 2      325      325      435      323      436      324      466
  grid # 3    15816    15816    17074    15816    17074    15816    17074
  grid # 4    13988    13988    15058    13988    15058    13988    15058
  grid # 5      748      748      786      748      786      748      786
  grid # 6      394      394      420      394      420      394      420
   
  number of gridpoints: 
     atom       C29      H30      C31      H32      H33      C34      H35
  grid # 1       96      118       91      112      108       92      112
  grid # 2      324      466      278      451      444      279      451
  grid # 3    15816    17074    15816    17074    17074    15816    17074
  grid # 4    13988    15058    13988    15058    15058    13988    15058
  grid # 5      748      786      748      786      786      748      786
  grid # 6      394      420      394      420      420      394      420
   
  number of gridpoints: 
     atom       H36      C37      H38      H39      C40      H41      H42
  grid # 1      107       92      112      107       91      107      112
  grid # 2      439      279      451      438      279      441      451
  grid # 3    17074    15816    17074    17074    15816    17074    17074
  grid # 4    15058    13988    15058    15058    13988    15058    15058
  grid # 5      786      748      786      786      748      786      786
  grid # 6      420      394      420      420      394      420      420
   
  number of gridpoints: 
     atom       C43      H44      H45      H46      C47      H48      H49
  grid # 1       79      106      107      110       79      106      110
  grid # 2      239      446      446      458      238      439      457
  grid # 3    15816    17074    17074    17074    15816    17074    17074
  grid # 4    13988    15058    15058    15058    13988    15058    15058
  grid # 5      748      786      786      786      748      786      786
  grid # 6      394      420      420      420      394      420      420
   
  number of gridpoints: 
     atom       H50      C51      H52      H53      H54      C55      H56
  grid # 1      105       79      105      105      108       82      107
  grid # 2      440      241      437      448      454      233      448
  grid # 3    17074    15816    17074    17074    17074    15816    17074
  grid # 4    15058    13988    15058    15058    15058    13988    15058
  grid # 5      786      748      786      786      786      748      786
  grid # 6      420      394      420      420      420      394      420
   
  number of gridpoints: 
     atom       H57      H58      H59      H60      H61      H62    total
  grid # 1      105      110      102      101      103      103     7451
  grid # 2      440      457      435      430      436      436    24326
  grid # 3    17074    17074    17074    17074    17074    17074  1067956
  grid # 4    15058    15058    15058    15058    15058    15058   950196
  grid # 5      786      786      786      786      786      786    48054
  grid # 6      420      420      420      420      420      420    27084
   
  Peak memory usage:   1453 Mb
  
  end of program grid
   
 Time(grid)  user:      106.8  user+sys:      106.8  wallclock:       27.7
  
  start of program rwr
  
  Peak memory usage:   1427 Mb
  
  end of program rwr
   
 Time(rwr)  user:       16.3  user+sys:       16.3  wallclock:        6.7
  
  start of program scf
  
 number of electrons..........        234
 number of alpha electrons....        117
 number of beta electrons.....        117
 number of orbitals, total....        577
 number of doubly-occ'd orbs..        117
 number of open shell orbs....          0
 number of occupied orbitals..        117
 number of virtual orbitals...        460
 number of hamiltonians.......          1
 number of shells.............          1
 SCF type: DFT=Becke_3_Parameter/HF+Slater+Becke88+VWN+LYP (B3LYP)
 Energy computed with NOPS off.
 Convergence Criterion:
    Energy (econv):       1.00E-05
    RMS density (dconv):  5.00E-06
  
       i  u  d  i  g                   
       t  p  i  c  r                                 RMS    maximum
       e  d  i  u  i                       energy  density   DIIS  
       r  t  s  t  d       total energy    change  change    error 
  
etot    1  N  N  1  U   -1830.59857937701           3.2E-03  1.0E-01
etot    2  N  Y  1  U   -1834.28224042065  3.7E+00  3.3E-03  5.7E-02
etot    3  N  Y  1  U   -1834.55876900381  2.8E-01  1.8E-03  1.0E-01
etot    4  N  Y  1  U   -1835.46085721946  9.0E-01  1.1E-03  3.0E-02
etot    5  N  Y  1  U   -1835.58006515853  1.2E-01  5.9E-04  2.2E-02
etot    6  N  Y  1  U   -1835.62960926190  5.0E-02  1.7E-04  7.2E-03
etot    7  N  Y  1  U   -1835.63578489290  6.2E-03  5.3E-05  2.7E-03
etot    8  N  Y  1  U   -1835.63683571279  1.1E-03  2.0E-05  7.8E-04
etot    9  N  Y  1  U   -1835.63690962771  7.4E-05  6.7E-06  1.4E-04
etot   10  N  Y  1  U   -1835.63691827176  8.6E-06  3.3E-06  8.3E-05
etot   11  N  N  1  U   -1835.63691985291  1.6E-06  0.0E+00  0.0E+00
  
  
 Energy components, in hartrees:
   (A)  Nuclear repulsion............    3650.65218211761
   (E)  Total one-electron terms.....   -9792.52563017720
   (I)  Total two-electron terms.....    4306.23652820669
   (J)    Coulomb....................    4518.53269745352
   (K)    Exchange+Correlation.......    -212.29616924684
   (L)  Electronic energy............   -5486.28910197052  (E+I)
   (N)  Total energy.................   -1835.63691985291  (A+L)
   (O)  Gas phase energy.............   -1835.63691985291
  
 SCFE: SCF energy: DFT(b3lyp)     -1835.63691985291 hartrees   iterations:  11
  
 
 HOMO energy:    -0.33750
 LUMO energy:    -0.17007
 
  Orbital energies (hartrees): 
   -77.23069   -77.21146   -19.28795   -14.51920   -14.43770   -10.43269
   -10.38218   -10.35611   -10.33170   -10.32483   -10.32215   -10.31466
   -10.31316   -10.31279   -10.31190   -10.30832   -10.30804   -10.30773
   -10.30278   -10.29429   -10.29336   -10.28958   -10.28790   -10.27921
   -10.27705   -10.27635   -10.27454    -6.70825    -6.69046    -4.86984
    -4.86898    -4.86838    -4.85228    -4.85133    -4.84975    -3.26127
    -2.06870    -2.06132    -2.05265    -1.19301    -1.08336    -1.00461
    -0.98197    -0.94715    -0.94041    -0.92072    -0.88016    -0.87846
    -0.87417    -0.87272    -0.82613    -0.82198    -0.80632    -0.78065
    -0.76997    -0.74834    -0.74469    -0.73940    -0.72916    -0.71795
    -0.71186    -0.68264    -0.67712    -0.66412    -0.64797    -0.64173
    -0.61327    -0.60972    -0.58592    -0.58207    -0.57940    -0.57740
    -0.57393    -0.56918    -0.56528    -0.55867    -0.54570    -0.54261
    -0.53929    -0.53439    -0.53134    -0.52142    -0.51946    -0.51750
    -0.51361    -0.50926    -0.50693    -0.49968    -0.48837    -0.48378
    -0.47631    -0.47537    -0.47333    -0.46970    -0.46271    -0.46095
    -0.45627    -0.45321    -0.44619    -0.44481    -0.44211    -0.43912
    -0.43793    -0.43547    -0.43418    -0.43087    -0.42826    -0.42694
    -0.42366    -0.41352    -0.40481    -0.39883    -0.38930    -0.38355
    -0.37215    -0.36972    -0.33750    -0.17007    -0.16217    -0.14896
    -0.13704    -0.12953    -0.10962    -0.08580    -0.07987    -0.07056
    -0.06229
 
  Peak memory usage:   2077 Mb
  
  end of program scf
   
 Time(scf)  user:      494.8  user+sys:      494.8  wallclock:      136.7
  
  start of program cutabab2
  
  Peak memory usage:   1822 Mb
  
  end of program cutabab2
   
 Time(cutabab2)  user:        2.0  user+sys:        2.0  wallclock:        0.9
  
  start of program der2a
  
  Peak memory usage:   1787 Mb
  
  end of program der2a
   
 Time(der2a)  user:       57.6  user+sys:       57.6  wallclock:       15.5
  
  start of program der2b
  
  Peak memory usage:   2227 Mb
  
  end of program der2b
   
 Time(der2b)  user:     3276.8  user+sys:     3276.8  wallclock:      823.8
  
  start of program der2nda
  
 
  Peak memory usage:    977 Mb
  
  end of program der2nda
   
 Time(der2nda)  user:       17.0  user+sys:       17.0  wallclock:       17.2
  
  start of program der2ndb
  
  Peak memory usage:   1882 Mb
  
  end of program der2ndb
   
 Time(der2ndb)  user:     4107.3  user+sys:     4107.3  wallclock:     1050.7
  
  start of program rwr
  
  Peak memory usage:   1427 Mb
  
  end of program rwr
   
 Time(rwr)  user:       16.3  user+sys:       16.3  wallclock:        7.1
  
  start of program cphfa
  
      13  vectors produced in CPHF
  
     v    i  j  k  i  g
     e    t  c  c  c  r
     c    e  o  o  u  i
     t    r  r  r  t  d       RMS  
  
     1    1  5  2  6  M     4.7E-03
     1    2  5  2  6  M     4.1E-04
     1    3  0  0  6  M     2.2E-04
     1    4  0  0  6  M     8.1E-05
     1    5  0  0  6  M     3.3E-05
  
     v    i  j  k  i  g
     e    t  c  c  c  r
     c    e  o  o  u  i
     t    r  r  r  t  d       RMS  
  
     2    1  5  2  6  M     4.5E-03
     2    2  5  2  6  M     3.0E-04
     2    3  0  0  6  M     1.3E-04
     2    4  0  0  6  M     7.0E-05
     2    5  0  0  6  M     3.0E-05
  
     v    i  j  k  i  g
     e    t  c  c  c  r
     c    e  o  o  u  i
     t    r  r  r  t  d       RMS  
  
     3    1  5  2  6  M     4.6E-03
     3    2  5  2  6  M     2.4E-04
     3    3  0  0  6  M     1.4E-04
     3    4  0  0  6  M     7.5E-05
     3    5  0  0  6  M     2.7E-05
  
     v    i  j  k  i  g
     e    t  c  c  c  r
     c    e  o  o  u  i
     t    r  r  r  t  d       RMS  
  
     4    1  5  2  6  M     4.3E-03
     4    2  5  2  6  M     2.7E-04
     4    3  0  0  6  M     1.2E-04
     4    4  0  0  6  M     6.1E-05
     4    5  0  0  6  M     2.5E-05
  
     v    i  j  k  i  g
     e    t  c  c  c  r
     c    e  o  o  u  i
     t    r  r  r  t  d       RMS  
  
     5    1  5  2  6  M     4.6E-03
     5    2  5  2  6  M     3.8E-04
     5    3  0  0  6  M     1.7E-04
     5    4  0  0  6  M     8.8E-05
     5    5  0  0  6  M     3.4E-05
  
     v    i  j  k  i  g
     e    t  c  c  c  r
     c    e  o  o  u  i
     t    r  r  r  t  d       RMS  
  
     6    1  5  2  6  M     4.7E-03
     6    2  5  2  6  M     3.9E-04
     6    3  0  0  6  M     1.6E-04
     6    4  0  0  6  M     9.9E-05
     6    5  0  0  6  M     3.8E-05
  
     v    i  j  k  i  g
     e    t  c  c  c  r
     c    e  o  o  u  i
     t    r  r  r  t  d       RMS  
  
     7    1  5  2  6  M     4.7E-03
     7    2  5  2  6  M     3.5E-04
     7    3  0  0  6  M     1.8E-04
     7    4  0  0  6  M     6.7E-05
     7    5  0  0  6  M     3.6E-05
  
     v    i  j  k  i  g
     e    t  c  c  c  r
     c    e  o  o  u  i
     t    r  r  r  t  d       RMS  
  
     8    1  5  2  6  M     4.6E-03
     8    2  5  2  6  M     2.5E-04
     8    3  0  0  6  M     1.1E-04
     8    4  0  0  6  M     4.8E-05
  
     v    i  j  k  i  g
     e    t  c  c  c  r
     c    e  o  o  u  i
     t    r  r  r  t  d       RMS  
  
     9    1  5  2  6  M     4.5E-03
     9    2  5  2  6  M     3.1E-04
     9    3  0  0  6  M     1.3E-04
     9    4  0  0  6  M     5.7E-05
     9    5  0  0  6  M     2.8E-05
  
     v    i  j  k  i  g
     e    t  c  c  c  r
     c    e  o  o  u  i
     t    r  r  r  t  d       RMS  
  
    10    1  5  2  6  M     4.5E-03
    10    2  5  2  6  M     2.2E-04
    10    3  0  0  6  M     1.0E-04
    10    4  0  0  6  M     4.6E-05
  
     v    i  j  k  i  g
     e    t  c  c  c  r
     c    e  o  o  u  i
     t    r  r  r  t  d       RMS  
  
    11    1  5  2  6  M     4.5E-03
    11    2  5  2  6  M     2.4E-04
    11    3  0  0  6  M     1.1E-04
    11    4  0  0  6  M     4.4E-05
  
     v    i  j  k  i  g
     e    t  c  c  c  r
     c    e  o  o  u  i
     t    r  r  r  t  d       RMS  
  
    12    1  5  2  6  M     4.6E-03
    12    2  5  2  6  M     2.6E-04
    12    3  0  0  6  M     1.6E-04
    12    4  0  0  6  M     9.0E-05
    12    5  0  0  6  M     3.4E-05
  
     v    i  j  k  i  g
     e    t  c  c  c  r
     c    e  o  o  u  i
     t    r  r  r  t  d       RMS  
  
    13    1  5  2  6  M     4.5E-03
    13    2  5  2  6  M     1.9E-04
    13    3  0  0  6  M     1.2E-04
    13    4  0  0  6  M     5.2E-05
    13    5  0  0  6  M     2.5E-05
  
  
  Atomic Polar Tensors (au): Total
  =========================
  
  APT for atom Rh1     
  --------------------------------------
       -0.6128      -0.0715      -0.0338
       -0.2084      -0.5010      -0.1519
        0.0364      -0.1024      -0.2086
  --------------------------------------
  
  APT for atom O2      
  --------------------------------------
       -0.8421       0.0710      -0.2923
        0.0368      -0.1664       0.0683
       -0.3745       0.0341      -1.0222
  --------------------------------------
  
  APT for atom C3      
  --------------------------------------
        1.3150      -0.0634       0.2509
       -0.1147       0.2049       0.0117
       -0.0057      -0.0205       0.6420
  --------------------------------------
  
  APT for atom N4      
  --------------------------------------
       -0.6763      -0.0235       0.0122
       -0.0350      -0.3333       0.0305
        0.2700      -0.0144      -0.3581
  --------------------------------------
  
  APT for atom C5      
  --------------------------------------
       -0.3930       0.2916      -0.0941
       -0.4018       0.3749      -0.0535
       -0.0169       0.0690       0.4515
  --------------------------------------
  
  APT for atom C6      
  --------------------------------------
        0.7769      -0.3298       0.2591
        0.1695       0.0671      -0.0129
        0.2405      -0.0224       0.1003
  --------------------------------------
  
  APT for atom C7      
  --------------------------------------
        0.5174      -0.0325      -0.0356
        0.2405       0.0253      -0.0176
       -0.3582       0.0099      -0.0675
  --------------------------------------
  
  APT for atom N8      
  --------------------------------------
       -0.4929       0.0501      -0.0341
       -0.1072      -0.2271      -0.0240
        0.1342      -0.0355      -0.2353
  --------------------------------------
  
  APT for atom H9      
  --------------------------------------
       -0.0322       0.0968      -0.0164
        0.0349       0.0422       0.0206
       -0.0072       0.0332       0.0236
  --------------------------------------
  
  APT for atom H10     
  --------------------------------------
        0.0432       0.0380       0.0014
        0.0309       0.0557       0.0073
        0.0135      -0.0066       0.0066
  --------------------------------------
  
  APT for atom H11     
  --------------------------------------
        0.2748      -0.0184       0.0642
        0.0401       0.2885      -0.0371
        0.0113      -0.0316       0.1435
  --------------------------------------
  
  APT for atom H12     
  --------------------------------------
        0.0485       0.0063      -0.1131
        0.0110       0.0878      -0.0318
       -0.0428       0.0016      -0.0635
  --------------------------------------
  
  APT for atom P13     
  --------------------------------------
        0.7593      -0.0944       0.1557
       -0.2331       1.1559       0.0331
        0.2399       0.0602       1.2380
  --------------------------------------
  
  APT for atom P14     
  --------------------------------------
        0.9236      -0.3080       0.2170
       -0.1983       0.9181       0.0374
        0.1944      -0.0950       1.0185
  --------------------------------------
  
  APT for atom C15     
  --------------------------------------
       -0.1722      -0.0706      -0.0502
        0.0383      -0.2257       0.0733
       -0.0604      -0.0569      -0.3786
  --------------------------------------
  
  APT for atom C16     
  --------------------------------------
       -0.2303       0.0861      -0.0084
        0.0594      -0.3528      -0.0646
       -0.0336       0.0612      -0.1812
  --------------------------------------
  
  APT for atom H17     
  --------------------------------------
       -0.3303       0.0459      -0.0743
       -0.0056       0.1396       0.0043
        0.0321       0.0261       0.1077
  --------------------------------------
  
  APT for atom H18     
  --------------------------------------
       -0.0108      -0.0318       0.0085
        0.2133      -0.2596       0.0363
        0.0381       0.0163       0.1610
  --------------------------------------
  
  APT for atom C19     
  --------------------------------------
       -0.0914       0.1408       0.0523
        0.0902       0.0269       0.1784
        0.0024       0.0679      -0.1494
  --------------------------------------
  
  APT for atom C20     
  --------------------------------------
        0.0149      -0.0573      -0.2622
       -0.0180      -0.1817      -0.0234
       -0.0983       0.0688      -0.1683
  --------------------------------------
  
  APT for atom C21     
  --------------------------------------
       -0.0294      -0.0746      -0.1656
        0.0753      -0.1918       0.0155
       -0.1587       0.0847       0.0088
  --------------------------------------
  
  APT for atom C22     
  --------------------------------------
       -0.1382       0.2793       0.1087
        0.1376      -0.0841       0.0883
       -0.0617       0.1450      -0.1081
  --------------------------------------
  
  APT for atom C23     
  --------------------------------------
       -0.0855       0.0500      -0.0374
       -0.0074      -0.0060       0.0308
       -0.0993       0.1864      -0.0637
  --------------------------------------
  
  APT for atom H24     
  --------------------------------------
        0.0921       0.0032       0.0019
        0.0085       0.0243      -0.0753
        0.0080      -0.0783       0.0139
  --------------------------------------
  
  APT for atom C25     
  --------------------------------------
       -0.0747       0.0048      -0.0796
        0.0735      -0.0654       0.2030
        0.0176       0.0238      -0.0180
  --------------------------------------
  
  APT for atom H26     
  --------------------------------------
        0.0982       0.0097       0.0166
        0.0087       0.0111      -0.0824
        0.0084      -0.0781       0.0182
  --------------------------------------
  
  APT for atom C27     
  --------------------------------------
       -0.0226      -0.0839       0.0277
       -0.0773       0.0958      -0.0548
        0.0190      -0.0523      -0.0574
  --------------------------------------
  
  APT for atom H28     
  --------------------------------------
        0.0800       0.0536      -0.0246
        0.0589      -0.0080       0.0252
       -0.0222       0.0177       0.0634
  --------------------------------------
  
  APT for atom C29     
  --------------------------------------
       -0.0389      -0.0055       0.0695
       -0.0162      -0.0673      -0.0613
        0.0745      -0.0544       0.1019
  --------------------------------------
  
  APT for atom H30     
  --------------------------------------
        0.0863       0.0237      -0.0437
        0.0251       0.0681       0.0159
       -0.0490       0.0232      -0.0190
  --------------------------------------
  
  APT for atom C31     
  --------------------------------------
        0.0209      -0.0588      -0.0627
       -0.0329       0.0109      -0.1284
        0.0117       0.0634       0.1566
  --------------------------------------
  
  APT for atom H32     
  --------------------------------------
        0.0150      -0.0420      -0.0007
       -0.0540      -0.0912      -0.0763
        0.0021      -0.0808      -0.0030
  --------------------------------------
  
  APT for atom H33     
  --------------------------------------
       -0.0186       0.0378      -0.0381
        0.0582      -0.0050       0.1082
       -0.0326       0.0374      -0.0465
  --------------------------------------
  
  APT for atom C34     
  --------------------------------------
       -0.0289       0.0533       0.0863
       -0.0588       0.1494       0.0520
        0.0684      -0.1350       0.0373
  --------------------------------------
  
  APT for atom H35     
  --------------------------------------
       -0.0010       0.0138       0.0584
        0.0263      -0.0008      -0.0583
        0.0883      -0.0710      -0.0876
  --------------------------------------
  
  APT for atom H36     
  --------------------------------------
       -0.0050       0.0211      -0.0485
        0.0388      -0.0342       0.0498
       -0.0747       0.1043      -0.0163
  --------------------------------------
  
  APT for atom C37     
  --------------------------------------
        0.0148       0.0382       0.2350
       -0.0405       0.0816      -0.0046
        0.0014       0.0176       0.0888
  --------------------------------------
  
  APT for atom H38     
  --------------------------------------
       -0.0483       0.0242       0.0669
        0.0326       0.0094      -0.0710
        0.0582      -0.0483      -0.0366
  --------------------------------------
  
  APT for atom H39     
  --------------------------------------
        0.0075       0.0212      -0.0918
        0.0232      -0.0374       0.0819
       -0.0354       0.0510      -0.0217
  --------------------------------------
  
  APT for atom C40     
  --------------------------------------
        0.0688      -0.1790      -0.0682
       -0.0339       0.0352       0.0162
        0.0406      -0.0723       0.0576
  --------------------------------------
  
  APT for atom H41     
  --------------------------------------
       -0.0129       0.0613      -0.0178
        0.0293      -0.0146       0.0520
       -0.0416       0.1140      -0.0255
  --------------------------------------
  
  APT for atom H42     
  --------------------------------------
        0.0203      -0.0309      -0.0177
       -0.0328      -0.0328      -0.0850
       -0.0247      -0.1047      -0.0419
  --------------------------------------
  
  APT for atom C43     
  --------------------------------------
        0.0383      -0.0050      -0.0213
       -0.0078       0.0197      -0.0712
        0.1152      -0.0431       0.0343
  --------------------------------------
  
  APT for atom H44     
  --------------------------------------
        0.0716      -0.0147      -0.0304
       -0.0317      -0.0822      -0.0490
       -0.0424      -0.0577       0.0471
  --------------------------------------
  
  APT for atom H45     
  --------------------------------------
        0.0341      -0.0167      -0.0317
        0.0413      -0.0157       0.0868
       -0.0692       0.0697      -0.0093
  --------------------------------------
  
  APT for atom H46     
  --------------------------------------
       -0.0695       0.0258       0.0800
        0.0361       0.0777      -0.0208
        0.0883      -0.0253      -0.0448
  --------------------------------------
  
  APT for atom C47     
  --------------------------------------
        0.0471       0.0651       0.0257
       -0.0754       0.0638      -0.0497
        0.0282      -0.0428       0.0109
  --------------------------------------
  
  APT for atom H48     
  --------------------------------------
        0.0066       0.0003       0.0054
        0.0488      -0.0089       0.0911
       -0.0203       0.0996      -0.0177
  --------------------------------------
  
  APT for atom H49     
  --------------------------------------
       -0.0229      -0.0658      -0.0389
       -0.0785      -0.0686      -0.0496
       -0.0479      -0.0520       0.0645
  --------------------------------------
  
  APT for atom H50     
  --------------------------------------
        0.0067       0.0134       0.0302
        0.0508       0.0840      -0.0294
        0.0416      -0.0451      -0.0558
  --------------------------------------
  
  APT for atom C51     
  --------------------------------------
        0.0185      -0.0726       0.0461
        0.0351       0.0503      -0.0709
        0.0127      -0.0312       0.0027
  --------------------------------------
  
  APT for atom H52     
  --------------------------------------
        0.0604      -0.0276      -0.0098
       -0.0236      -0.0124      -0.0652
       -0.0328      -0.0635      -0.0240
  --------------------------------------
  
  APT for atom H53     
  --------------------------------------
        0.0144       0.0521      -0.0946
        0.0162      -0.0056       0.0328
       -0.0476       0.0621       0.0166
  --------------------------------------
  
  APT for atom H54     
  --------------------------------------
       -0.0447       0.0091       0.0984
        0.0132       0.0302       0.0043
        0.0831       0.0080       0.0203
  --------------------------------------
  
  APT for atom C55     
  --------------------------------------
        0.0319       0.0021       0.0761
       -0.0169       0.0049      -0.0086
       -0.0357      -0.1054       0.0559
  --------------------------------------
  
  APT for atom H56     
  --------------------------------------
        0.0153       0.0461       0.0733
        0.0657       0.0171      -0.0327
        0.0904       0.0033       0.0159
  --------------------------------------
  
  APT for atom H57     
  --------------------------------------
       -0.0309       0.0565      -0.0791
        0.0414       0.0561       0.0620
       -0.0224       0.0758      -0.0014
  --------------------------------------
  
  APT for atom H58     
  --------------------------------------
        0.0341      -0.0881      -0.0361
       -0.0892      -0.0423      -0.0512
       -0.0622      -0.0784      -0.0135
  --------------------------------------
  
  APT for atom H59     
  --------------------------------------
        0.0241       0.0025       0.0119
       -0.0112       0.0092      -0.0209
       -0.0494       0.0513      -0.0479
  --------------------------------------
  
  APT for atom H60     
  --------------------------------------
       -0.0359       0.0533      -0.0443
        0.0407      -0.0383       0.0784
        0.0089       0.0034      -0.0116
  --------------------------------------
  
  APT for atom H61     
  --------------------------------------
       -0.0151       0.0344      -0.0225
       -0.0029      -0.0144      -0.0223
       -0.0617       0.0437      -0.0708
  --------------------------------------
  
  APT for atom H62     
  --------------------------------------
        0.0265      -0.0160      -0.0195
        0.0630      -0.1114       0.0607
        0.0096      -0.0283      -0.0322
  --------------------------------------
  
  Peak memory usage:   1961 Mb
  
  end of program cphfa
   
 Time(cphfa)  user:    11835.3  user+sys:    11835.3  wallclock:     4434.1
  
  start of program freq
  
   
  Number of frequencies: 180
  harmonic frequencies in cm**-1, reduced masses in amu,
  force constants in mDyne/A, and
  normal modes in cartesian coordinates:         180
  IR intensities in km/mol
  
  vibration #            1        2        3        4        5        6
                  -------- -------- -------- -------- -------- --------
  frequencies      -598.49    25.06    46.72    56.46    57.00    66.52
  intensities        12.16     0.03     0.00     0.31     0.99     1.17
  reduc. mass         0.78     0.49     0.73     0.82     0.84     0.94
  force const         0.17     0.00     0.00     0.00     0.00     0.00
    Rh1      X     0.00404 -0.01245 -0.00239  0.00753  0.00984  0.00351
    Rh1      Y     0.01786 -0.00022  0.00008 -0.00222 -0.00343  0.00555
    Rh1      Z     0.00167  0.00180 -0.00971 -0.00501 -0.00695  0.00279
    O2       X    -0.00187 -0.02339 -0.01752 -0.03072 -0.01734  0.02139
    O2       Y     0.00157  0.00221 -0.01935 -0.01786 -0.04003  0.03125
    O2       Z    -0.00189  0.00142 -0.00896 -0.00565 -0.00844  0.00354
    C3       X     0.00308 -0.02600 -0.02090 -0.04043 -0.02510  0.02484
    C3       Y    -0.00008 -0.00958 -0.01642 -0.00620 -0.05557  0.03322
    C3       Z    -0.00069  0.00720 -0.00173  0.01493  0.00743 -0.00292
    N4       X    -0.00439 -0.02371 -0.01582 -0.02653 -0.01514  0.01934
    N4       Y    -0.00799 -0.02273 -0.00445  0.01416 -0.04452  0.01051
    N4       Z    -0.00546  0.01318  0.00452  0.03416  0.02115 -0.00707
    C5       X    -0.03496 -0.01946 -0.00568  0.00267  0.00466  0.00973
    C5       Y     0.01705 -0.02430  0.00318  0.02356 -0.01158 -0.01623
    C5       Z    -0.01276  0.01338  0.00274  0.03121  0.01418 -0.00118
    C6       X    -0.05573 -0.03225  0.00137  0.02921  0.01702 -0.01637
    C6       Y    -0.04981 -0.01730  0.00318  0.01726 -0.00499 -0.01071
    C6       Z    -0.00673  0.01147 -0.00777  0.01204 -0.02053  0.02180
    C7       X    -0.00722 -0.00441 -0.00337  0.00707  0.00267  0.03141
    C7       Y    -0.01443 -0.04054  0.01108  0.04626  0.02147 -0.06191
    C7       Z     0.00013  0.01877  0.01209  0.05553  0.03949 -0.01195
    N8       X    -0.00480  0.00793 -0.00219  0.01369  0.00115  0.05281
    N8       Y    -0.00469 -0.05552  0.01708  0.06895  0.05350 -0.10736
    N8       Z     0.00447  0.02284  0.01850  0.08276  0.06342 -0.02068
    H9       X     0.20080 -0.04497 -0.00153  0.02943  0.01710 -0.03488
    H9       Y    -0.09218 -0.01422 -0.00138  0.00757 -0.02519  0.00847
    H9       Z     0.03650  0.01078 -0.01302  0.00271 -0.04007  0.03500
    H10      X     0.09452 -0.03219  0.00972  0.05078  0.02630 -0.02364
    H10      Y    -0.06784 -0.02119  0.00874  0.03012  0.02083 -0.03450
    H10      Z     0.03861  0.01306 -0.00767  0.01283 -0.02868  0.02970
    H11      X    -0.00138 -0.02608 -0.01901 -0.03512 -0.02190  0.02244
    H11      Y    -0.01037 -0.03219 -0.00426  0.02353 -0.05481  0.01440
    H11      Z    -0.00977  0.01783  0.01039  0.04971  0.03389 -0.01294
    H12      X     0.00039 -0.03051 -0.02825 -0.06124 -0.04001  0.03172
    H12      Y    -0.00320 -0.00963 -0.02367 -0.01226 -0.07972  0.05428
    H12      Z    -0.00051  0.00768 -0.00026  0.01770  0.01129 -0.00566
    P13      X    -0.00186  0.00239  0.01330  0.00287  0.00182  0.01044
    P13      Y     0.00142  0.00181  0.01396 -0.00809  0.00307  0.00607
    P13      Z     0.00087  0.00041 -0.00984 -0.00571 -0.00566  0.00079
    P14      X    -0.01049  0.00557 -0.00884 -0.00107  0.02037 -0.01730
    P14      Y    -0.01219  0.00524 -0.00234 -0.00445  0.00247  0.00118
    P14      Z    -0.00161 -0.00676  0.00132 -0.00442  0.00223  0.00418
    C15      X    -0.00005 -0.02212  0.00943  0.01258  0.00101  0.02270
    C15      Y    -0.00054 -0.01043  0.01256 -0.00222  0.00404  0.01229
    C15      Z    -0.00149  0.00195 -0.00540 -0.00717  0.00261 -0.00418
    C16      X    -0.00013 -0.01845 -0.02375 -0.00512  0.00381 -0.02694
    C16      Y    -0.00169 -0.00706 -0.00377 -0.00865  0.00038 -0.00568
    C16      Z    -0.00150 -0.00063  0.00662 -0.00320  0.00631  0.00675
    H17      X     0.00739 -0.01338 -0.00144  0.00995  0.01175  0.00342
    H17      Y    -0.15939  0.01353 -0.00212 -0.01451 -0.00307  0.00868
    H17      Z    -0.03336 -0.00666 -0.01997 -0.01694 -0.01457  0.00833
    H18      X     0.85257 -0.03327  0.00585  0.03802  0.02514 -0.02364
    H18      Y    -0.15744  0.00188 -0.00054 -0.00522 -0.00456  0.00966
    H18      Z     0.09585  0.00545 -0.02218 -0.00926 -0.02066  0.00657
    C19      X     0.00028  0.03779  0.01917 -0.03065 -0.01299 -0.01530
    C19      Y    -0.00019 -0.01146  0.01622  0.00612  0.00859  0.02919
    C19      Z    -0.00028 -0.01532 -0.01386  0.00094  0.00041 -0.01007
    C20      X    -0.00119  0.01207  0.02708 -0.01188 -0.00587  0.01129
    C20      Y     0.00002  0.04200 -0.00252 -0.03111 -0.00724 -0.02303
    C20      Z    -0.00035  0.01261  0.00975 -0.02402 -0.01659  0.00771
    C21      X    -0.00137  0.02963  0.01471  0.01132  0.02645 -0.00358
    C21      Y    -0.00167  0.02749 -0.00490 -0.01088  0.01800 -0.01363
    C21      Z     0.00043  0.01284  0.02678  0.01163  0.00160  0.02043
    C22      X     0.00311  0.02435 -0.00435 -0.00498  0.02048 -0.03180
    C22      Y    -0.01188  0.00354  0.00173  0.00176  0.01494  0.01905
    C22      Z     0.00171 -0.03997 -0.02028 -0.01678 -0.02061 -0.01735
    C23      X     0.00075 -0.03154 -0.05214 -0.01520 -0.00766 -0.05800
    C23      Y    -0.00030 -0.01309 -0.01487 -0.01292 -0.00320 -0.01920
    C23      Z     0.00082  0.00133  0.01800 -0.00081  0.01368  0.01248
    H24      X    -0.00030 -0.02750 -0.07825 -0.03069 -0.00507 -0.09955
    H24      Y    -0.00059 -0.01037 -0.02788 -0.01924 -0.00477 -0.03474
    H24      Z     0.00099 -0.00086  0.02772  0.00368  0.01512  0.02255
    C25      X     0.00008 -0.03957  0.02174  0.02428 -0.01145  0.05548
    C25      Y     0.00042 -0.01965  0.02062  0.00253  0.00421  0.02300
    C25      Z    -0.00060  0.00666 -0.00826 -0.01080  0.00720 -0.01460
    H26      X     0.00030 -0.04250  0.05121  0.03688 -0.01255  0.09698
    H26      Y     0.00056 -0.02147  0.03469  0.00764  0.00704  0.03864
    H26      Z    -0.00062  0.00811 -0.01807 -0.01394  0.00446 -0.02412
    C27      X     0.00031 -0.05027 -0.04543 -0.00397 -0.02293 -0.03126
    C27      Y    -0.00010 -0.02293 -0.00946 -0.00890 -0.00419 -0.01178
    C27      Z     0.00066  0.00640  0.01650 -0.00418  0.01937  0.00391
    H28      X     0.00007 -0.06136 -0.06893 -0.01153 -0.03289 -0.05581
    H28      Y    -0.00007 -0.02801 -0.01909 -0.01231 -0.00745 -0.02299
    H28      Z     0.00153  0.00825  0.02533 -0.00270  0.02669  0.00810
    C29      X    -0.00015 -0.05453 -0.00551  0.01794 -0.02421  0.03168
    C29      Y     0.00040 -0.02630  0.00966 -0.00045 -0.00028  0.01173
    C29      Z     0.00018  0.00929  0.00253 -0.00984  0.01558 -0.01156
    H30      X    -0.00057 -0.06921  0.00317  0.02816 -0.03490  0.05860
    H30      Y     0.00098 -0.03412  0.01576  0.00309 -0.00082  0.01994
    H30      Z     0.00046  0.01327  0.00047 -0.01299  0.01950 -0.02006
    C31      X     0.00063  0.04966  0.03209  0.03582 -0.02481 -0.03392
    C31      Y    -0.00292  0.02260 -0.01308 -0.03594  0.09543  0.03609
    C31      Z    -0.00162 -0.03517 -0.00056  0.01149 -0.06432 -0.02322
    H32      X     0.00238  0.05993  0.03861  0.04627 -0.05192 -0.05423
    H32      Y    -0.00157  0.02329 -0.01577 -0.04369  0.11692  0.04689
    H32      Z    -0.00999 -0.05157  0.00342  0.03374 -0.12801 -0.04663
    H33      X     0.00049  0.05909  0.05137  0.05322 -0.02729 -0.01653
    H33      Y     0.00188  0.02898 -0.02209 -0.06078  0.15902  0.06174
    H33      Z     0.00181 -0.03507 -0.01775 -0.01712 -0.01294 -0.01221
    C34      X     0.00053  0.04772  0.03053  0.03367 -0.01976 -0.03120
    C34      Y    -0.00106  0.03164 -0.01054 -0.02633  0.05708  0.00307
    C34      Z    -0.00142 -0.00767  0.03370  0.04090 -0.07736 -0.00854
    H35      X     0.00137  0.06514  0.05345  0.05489 -0.03573 -0.02552
    H35      Y    -0.00174  0.04518 -0.01923 -0.04738  0.10175  0.01090
    H35      Z    -0.00113 -0.00138  0.04555  0.05360 -0.09075 -0.00693
    H36      X     0.00011  0.04139  0.01720  0.02601 -0.03236 -0.05364
    H36      Y    -0.00081  0.02742 -0.00309 -0.00691  0.00768 -0.01843
    H36      Z    -0.00070 -0.00819  0.05118  0.06814 -0.12503 -0.01791
    C37      X     0.00017  0.03275  0.06333 -0.05724 -0.01846 -0.01117
    C37      Y     0.00002  0.05982 -0.07051  0.01991 -0.00868  0.01399
    C37      Z    -0.00012 -0.00676  0.04712 -0.04663 -0.01171 -0.01213
    H38      X     0.00004  0.04238  0.07703 -0.07625 -0.02388 -0.02180
    H38      Y    -0.00015  0.08677 -0.09571  0.01802 -0.01522  0.00273
    H38      Z    -0.00022 -0.01361  0.09855 -0.08255 -0.01615 -0.02239
    H39      X    -0.00010  0.02219  0.08618 -0.06142 -0.01952  0.00355
    H39      Y    -0.00057  0.06614 -0.11290  0.05696 -0.00777  0.04238
    H39      Z    -0.00049  0.00480 -0.00095 -0.01443 -0.01035  0.00147
    C40      X     0.00010  0.05404  0.04383 -0.06487 -0.02226 -0.03482
    C40      Y    -0.00001  0.02996 -0.04130  0.02082 -0.00147  0.02518
    C40      Z    -0.00020 -0.02967  0.07282 -0.06002 -0.00314 -0.03375
    H41      X     0.00073  0.06897  0.01551 -0.05864 -0.02328 -0.04755
    H41      Y    -0.00005  0.02819 -0.00740 -0.01256 -0.00302 -0.00244
    H41      Z    -0.00039 -0.04387  0.13401 -0.10258 -0.00402 -0.05432
    H42      X     0.00044  0.06696  0.07201 -0.09838 -0.03031 -0.05193
    H42      Y    -0.00070  0.03731 -0.08619  0.05983 -0.00098  0.05545
    H42      Z     0.00009 -0.04156  0.08929 -0.06963  0.00074 -0.04589
    C43      X    -0.00102  0.02007  0.00508  0.00446  0.03047 -0.00502
    C43      Y    -0.00097  0.03012  0.00307  0.01817 -0.06461 -0.06473
    C43      Z     0.00011  0.04201  0.05330  0.01767  0.03447  0.05303
    H44      X     0.00152  0.00848 -0.00507 -0.01220  0.06702  0.01825
    H44      Y    -0.00084  0.02701  0.00560  0.02749 -0.09083 -0.07712
    H44      Z     0.00016  0.05616  0.05010 -0.00311  0.09721  0.08018
    H45      X    -0.00013  0.00845 -0.00889  0.00667 -0.00528 -0.03952
    H45      Y    -0.00024  0.02259  0.00864  0.03907 -0.12357 -0.09231
    H45      Z     0.00038  0.04006  0.06321  0.03445 -0.00197  0.04252
    H46      X    -0.00045  0.03659  0.02221  0.01334  0.03438  0.00596
    H46      Y     0.00011  0.04303  0.00036  0.00936 -0.04143 -0.06455
    H46      Z     0.00027  0.05287  0.06763  0.02653  0.03315  0.06183
    C47      X     0.00268  0.02262 -0.00246 -0.00061  0.01690 -0.03024
    C47      Y    -0.00199 -0.00792  0.01553  0.03383 -0.00941  0.02688
    C47      Z    -0.00002 -0.06094 -0.07036 -0.08306  0.06186 -0.01829
    H48      X     0.00761  0.02747  0.02797  0.04642 -0.03053 -0.02411
    H48      Y     0.00125 -0.00445  0.01491  0.02878  0.01748  0.03501
    H48      Z     0.00082 -0.05907 -0.08328 -0.10769  0.11079 -0.01141
    H49      X    -0.00380  0.03437 -0.00070 -0.00769  0.01639 -0.03263
    H49      Y     0.00211 -0.00949  0.01889  0.04036 -0.00467  0.03218
    H49      Z    -0.00186 -0.07644 -0.08375 -0.09089  0.04837 -0.03060
    H50      X     0.00417  0.00565 -0.03204 -0.03576  0.06135 -0.03349
    H50      Y    -0.00238 -0.01877  0.02289  0.05741 -0.05851  0.01830
    H50      Z     0.00091 -0.06434 -0.08403 -0.10353  0.09386 -0.01748
    C51      X     0.00007 -0.00411  0.00395  0.03409 -0.00136  0.05978
    C51      Y    -0.00025  0.05803 -0.00677 -0.04406 -0.01140 -0.03764
    C51      Z     0.00045  0.04320 -0.04784  0.01122 -0.02405  0.04183
    H52      X     0.00183 -0.02165 -0.01562  0.07511  0.01343  0.07592
    H52      Y    -0.00237  0.04648  0.04145 -0.08898 -0.01395 -0.06979
    H52      Z     0.00119  0.05655 -0.07127  0.02534 -0.02733  0.05638
    H53      X     0.00040 -0.00778 -0.00234  0.04675 -0.00465  0.08415
    H53      Y     0.00049  0.05890 -0.04699  0.00366 -0.00637 -0.00034
    H53      Z     0.00067  0.04811 -0.08304  0.04708 -0.01515  0.05358
    H54      X     0.00010  0.00482  0.01290  0.01429 -0.01033  0.05593
    H54      Y    -0.00053  0.08253 -0.01702 -0.05852 -0.01691 -0.05525
    H54      Z     0.00063  0.04925 -0.03085 -0.01479 -0.03619  0.04155
    C55      X     0.00220  0.06893 -0.06565  0.00799 -0.01911 -0.01910
    C55      Y     0.00075 -0.04860  0.07743 -0.01517  0.01804  0.02942
    C55      Z     0.00366 -0.02426 -0.03503  0.01801  0.00454 -0.01400
    H56      X     0.00029  0.05747 -0.07724  0.02643 -0.01259 -0.00713
    H56      Y     0.00198 -0.07902  0.12678 -0.03097  0.02639  0.03236
    H56      Z    -0.00072 -0.01076 -0.09974  0.05964  0.00565  0.00015
    H57      X     0.00267  0.08916 -0.13092  0.04072 -0.02240 -0.01929
    H57      Y     0.00703 -0.04403  0.07997 -0.02598  0.01391  0.01229
    H57      Z     0.00901 -0.03699  0.01959 -0.01674  0.00400 -0.02689
    H58      X     0.00536  0.08537 -0.05547 -0.01357 -0.02791 -0.03464
    H58      Y    -0.00482 -0.05236  0.07494 -0.00551  0.02157  0.04409
    H58      Z     0.00733 -0.03238 -0.03983  0.02344  0.00720 -0.01845
    H59      X     0.00023  0.03918  0.02639  0.00660  0.06557  0.03221
    H59      Y    -0.00146  0.03465 -0.01219 -0.03117  0.06902  0.00703
    H59      Z     0.00021  0.01639  0.01617 -0.00610  0.03728  0.02840
    H60      X    -0.00101  0.01470  0.03219 -0.02754 -0.00474 -0.01256
    H60      Y     0.00152  0.03942  0.04579 -0.07890 -0.00935 -0.06143
    H60      Z     0.00153  0.00745  0.04635 -0.04787 -0.01932  0.00035
    H61      X    -0.00060  0.01836  0.08189 -0.06282 -0.01069 -0.01634
    H61      Y    -0.00202 -0.02095  0.01587  0.02037  0.01306  0.04984
    H61      Z    -0.00097 -0.00452 -0.07202  0.04157  0.00181  0.00691
    H62      X    -0.00751  0.01778 -0.03568 -0.05092  0.06710 -0.03810
    H62      Y    -0.02400 -0.00297  0.00479  0.01206 -0.02077  0.00507
    H62      Z    -0.00801 -0.04474 -0.00731  0.00829 -0.07208 -0.02967
  
  vibration #            7        8        9       10       11       12
                  -------- -------- -------- -------- -------- --------
  frequencies        75.78    83.09    92.25    96.28   103.31   117.83
  intensities         2.70     3.30     1.52     1.48     0.40     1.89
  reduc. mass         1.99     1.17     0.84     1.03     0.84     2.44
  force const         0.01     0.00     0.00     0.01     0.01     0.02
    Rh1      X     0.01728  0.00105  0.00201  0.00022 -0.00346 -0.01865
    Rh1      Y     0.01727 -0.01081  0.00309  0.00645 -0.00758  0.02694
    Rh1      Z    -0.01100 -0.01162 -0.00262  0.00411  0.00053 -0.01672
    O2       X    -0.00001 -0.03251 -0.03397 -0.00456  0.01978 -0.00912
    O2       Y     0.01772  0.03768  0.01629  0.00426  0.01818  0.03688
    O2       Z    -0.01181 -0.00722  0.00180  0.00402  0.00753 -0.01895
    C3       X    -0.00818 -0.03723 -0.03825 -0.00195  0.02177 -0.00553
    C3       Y    -0.00869  0.10241  0.01704 -0.01378  0.01923  0.00721
    C3       Z     0.00549  0.00342  0.01094 -0.00147  0.00158 -0.02660
    N4       X    -0.00001 -0.02799 -0.03420 -0.00627  0.01660 -0.01288
    N4       Y    -0.03443  0.11358  0.00259 -0.02167 -0.00083 -0.00894
    N4       Z     0.02329  0.01687  0.01942 -0.00792 -0.00340 -0.03442
    C5       X     0.01920 -0.00782 -0.03163 -0.02024  0.00805 -0.02184
    C5       Y    -0.02701  0.04688 -0.01961 -0.01316 -0.00668  0.01786
    C5       Z     0.02167  0.02886  0.02362 -0.00923 -0.00175 -0.04051
    C6       X    -0.00149  0.01627 -0.03553 -0.02586  0.01067 -0.03139
    C6       Y    -0.00840  0.01913 -0.02240 -0.01139 -0.00951  0.02532
    C6       Z     0.00465  0.07030  0.03648 -0.00887  0.00410 -0.05230
    C7       X     0.05556  0.00200 -0.05057 -0.05046 -0.00301  0.00229
    C7       Y    -0.05063  0.01173 -0.02233  0.00730  0.01173  0.01606
    C7       Z     0.04727  0.01120 -0.00140 -0.02882 -0.00024 -0.01280
    N8       X     0.09251  0.00890 -0.07853 -0.08755 -0.00620  0.03325
    N8       Y    -0.07549 -0.02420 -0.02893  0.02968  0.04253  0.02548
    N8       Z     0.07567 -0.00873 -0.04329 -0.05941  0.02050  0.03547
    H9       X    -0.03068  0.00385 -0.05314 -0.02189  0.02205 -0.02004
    H9       Y    -0.00952  0.05143 -0.00774 -0.01236 -0.00875  0.01407
    H9       Z    -0.00501  0.09808  0.04563 -0.00864  0.00822 -0.06011
    H10      X     0.00048  0.04812 -0.03012 -0.03576  0.00722 -0.04494
    H10      Y    -0.00525 -0.02056 -0.03959 -0.01104 -0.01088  0.03723
    H10      Z     0.00393  0.09593  0.04517 -0.01180  0.00362 -0.06105
    H11      X    -0.00704 -0.03240 -0.03720 -0.00399  0.02048 -0.00996
    H11      Y    -0.04822  0.15836 -0.00377 -0.04085  0.00740 -0.02944
    H11      Z     0.03662  0.02365  0.02515 -0.01149 -0.01094 -0.03907
    H12      X    -0.02253 -0.04986 -0.04559  0.00417  0.02953  0.00375
    H12      Y    -0.01182  0.15466  0.02896 -0.02481  0.03580 -0.00695
    H12      Z     0.00729 -0.00012  0.01063 -0.00108 -0.00068 -0.02627
    P13      X     0.00038  0.00386  0.01300  0.03567 -0.03585 -0.01165
    P13      Y     0.01211 -0.00576  0.00253  0.00455 -0.01427  0.00597
    P13      Z    -0.00823 -0.01493 -0.00509 -0.00160  0.00652 -0.00452
    P14      X     0.01391  0.01095  0.03657  0.01997  0.02798  0.00250
    P14      Y     0.01674 -0.01905  0.00944  0.01247 -0.00040  0.01370
    P14      Z    -0.01427 -0.00143 -0.00469  0.00178 -0.01390 -0.01537
    C15      X    -0.01197  0.00050  0.00855  0.04020 -0.02464 -0.00579
    C15      Y     0.00716 -0.00048  0.00253  0.00731 -0.00893  0.00750
    C15      Z    -0.00688 -0.00020  0.00180 -0.00356  0.00061 -0.01447
    C16      X     0.01188  0.00933  0.02611  0.02224  0.02019 -0.00180
    C16      Y     0.01689 -0.00489  0.00802  0.00286  0.00536  0.01506
    C16      Z    -0.01313  0.00545 -0.00087 -0.00078 -0.00861 -0.01690
    H17      X     0.01846  0.00352  0.00027 -0.00269 -0.00220 -0.02159
    H17      Y     0.02677 -0.02833  0.03513  0.03439 -0.01871  0.04442
    H17      Z    -0.00897 -0.02884 -0.02684 -0.01028  0.01621 -0.01128
    H18      X    -0.01053  0.03149 -0.03054 -0.02804  0.03043 -0.05372
    H18      Y     0.02215 -0.01629  0.00419  0.00795 -0.01582  0.02941
    H18      Z    -0.01128 -0.00464  0.01105  0.00578  0.01554 -0.00598
    C19      X    -0.00645 -0.00255  0.01066  0.01013 -0.02021  0.00338
    C19      Y     0.00493  0.00680 -0.00871  0.01894  0.00788 -0.02304
    C19      Z     0.01042 -0.02702  0.01275 -0.00091 -0.03787  0.02169
    C20      X    -0.00686  0.00233  0.00040  0.03682 -0.00870  0.00344
    C20      Y     0.00297 -0.00400  0.01104 -0.03494 -0.01419 -0.02245
    C20      Z    -0.01709 -0.01862 -0.02876  0.00250  0.05717  0.02626
    C21      X    -0.01221  0.01576  0.03734 -0.00140  0.02251  0.02899
    C21      Y    -0.01288 -0.01199 -0.04380  0.01559 -0.02265 -0.02826
    C21      Z    -0.03248 -0.00042  0.00742 -0.01937 -0.01691  0.01967
    C22      X    -0.00658  0.03494 -0.00537  0.01587  0.00429  0.01942
    C22      Y     0.01556 -0.04100  0.03861  0.00949  0.01729 -0.01186
    C22      Z     0.02210  0.01436  0.00339  0.02327 -0.01154  0.02067
    C23      X    -0.00162  0.00079  0.03587 -0.03550  0.04440 -0.00033
    C23      Y     0.01150 -0.00534  0.01263 -0.02222  0.01700  0.01356
    C23      Z    -0.00796  0.02186 -0.00080  0.01282 -0.00872 -0.02415
    H24      X     0.01894  0.01121  0.04704 -0.04832  0.08066  0.00311
    H24      Y     0.01917 -0.00981  0.01583 -0.02632  0.02854  0.01877
    H24      Z    -0.01283  0.02757 -0.00252  0.01532 -0.01567 -0.02842
    C25      X    -0.05735 -0.02106 -0.00232  0.00652 -0.05637 -0.01180
    C25      Y    -0.01038  0.00516  0.00116 -0.00889 -0.01530 -0.00184
    C25      Z     0.00642  0.00912  0.00586  0.00574  0.01102 -0.01352
    H26      X    -0.07797 -0.02892 -0.01792  0.02308 -0.09236 -0.01828
    H26      Y    -0.01747  0.01138 -0.00391 -0.00217 -0.02436 -0.00995
    H26      Z     0.01058  0.00249  0.00860  0.00168  0.01552 -0.00714
    C27      X    -0.04905 -0.02422  0.02973 -0.08708  0.01520 -0.00414
    C27      Y    -0.00715 -0.00236  0.01326 -0.04702  0.01186  0.00492
    C27      Z     0.00624  0.03226  0.00170  0.02745  0.00154 -0.02572
    H28      X    -0.06342 -0.03424  0.03921 -0.14317  0.03243 -0.00305
    H28      Y    -0.01306 -0.00450  0.01785 -0.07155  0.02042  0.00433
    H28      Z     0.01149  0.04478  0.00126  0.04179  0.00168 -0.03076
    C29      X    -0.08000 -0.03585  0.00922 -0.06329 -0.03926 -0.01138
    C29      Y    -0.01942  0.00228  0.00697 -0.03938 -0.00622 -0.00226
    C29      Z     0.01456  0.02654  0.00551  0.02318  0.01286 -0.01939
    H30      X    -0.11968 -0.05558  0.00253 -0.09981 -0.06527 -0.01672
    H30      Y    -0.03533  0.00383  0.00653 -0.05762 -0.01232 -0.00873
    H30      Z     0.02634  0.03425  0.00794  0.03333  0.02144 -0.01866
    C31      X    -0.01662  0.01814 -0.00992  0.00386 -0.00022  0.01536
    C31      Y    -0.03086 -0.01833  0.00481 -0.00575 -0.00150 -0.02720
    C31      Z     0.03292  0.00078  0.01247  0.02309 -0.00773  0.02561
    H32      X    -0.01875  0.02345 -0.03990  0.00899 -0.01454  0.01451
    H32      Y    -0.03852 -0.01784  0.01127 -0.01096  0.00109 -0.02954
    H32      Z     0.07070 -0.00852  0.02170  0.04043 -0.00094  0.03687
    H33      X    -0.02299  0.00372  0.01464 -0.00863  0.00912  0.01773
    H33      Y    -0.05840 -0.01120  0.00922 -0.01997 -0.00106 -0.03578
    H33      Z     0.01453  0.01398  0.00304  0.01846 -0.01229  0.01741
    C34      X    -0.01633  0.01754 -0.00563  0.00388  0.00161  0.01589
    C34      Y    -0.02940 -0.00822 -0.04088  0.00583 -0.02196 -0.03152
    C34      Z     0.01292 -0.01233  0.01986  0.00380 -0.00927  0.02968
    H35      X    -0.02632  0.00992 -0.00322 -0.00656 -0.00047  0.02030
    H35      Y    -0.05771  0.00390 -0.06528 -0.00426 -0.03316 -0.04427
    H35      Z     0.01209 -0.01748  0.02432  0.00028 -0.00874  0.03357
    H36      X    -0.00821  0.02753 -0.03271  0.01771 -0.00803  0.00811
    H36      Y    -0.00953 -0.01152 -0.04754  0.01872 -0.02445 -0.02815
    H36      Z     0.03006 -0.02269  0.03045  0.00922 -0.00560  0.03850
    C37      X    -0.01310  0.00176 -0.00867  0.00976  0.02345  0.01143
    C37      Y    -0.01449 -0.00378 -0.00423 -0.00587  0.00753 -0.02110
    C37      Z    -0.00247 -0.01893 -0.01509 -0.00993  0.03227  0.02432
    H38      X    -0.01556  0.00142 -0.01065 -0.00202  0.03331  0.01348
    H38      Y    -0.01970 -0.00662 -0.00062 -0.01918  0.00674 -0.02353
    H38      Z    -0.00226 -0.01682 -0.02246 -0.02054  0.05256  0.03056
    H39      X    -0.01952  0.00514 -0.02372  0.02155  0.04976  0.01649
    H39      Y    -0.02573 -0.00218 -0.01529  0.01823  0.02160 -0.02207
    H39      Z    -0.00757 -0.01983 -0.01463  0.00198  0.02716  0.02032
    C40      X    -0.00924 -0.00336  0.00656 -0.01186  0.00025  0.00944
    C40      Y    -0.00867 -0.00013 -0.00730  0.00868  0.00710 -0.01912
    C40      Z     0.01898 -0.02135  0.00606 -0.02215 -0.00946  0.02421
    H41      X    -0.00581 -0.00867  0.01994 -0.02310 -0.02501  0.00900
    H41      Y     0.00275 -0.00169  0.00314 -0.01486 -0.00404 -0.01560
    H41      Z     0.02895 -0.01884  0.00685 -0.03929 -0.00131  0.02843
    H42      X    -0.01135 -0.00334  0.00146 -0.03129  0.02159  0.01345
    H42      Y    -0.02279  0.00143 -0.01877  0.03337  0.01995 -0.02356
    H42      Z     0.02995 -0.02247  0.01673 -0.02918 -0.02963  0.02532
    C43      X    -0.00375  0.01490  0.04435  0.00356  0.03026  0.02209
    C43      Y     0.00988 -0.02036 -0.09622  0.04209 -0.04442 -0.06968
    C43      Z    -0.07301  0.00758  0.01562 -0.05075 -0.02911  0.06943
    H44      X    -0.00118  0.01788  0.08339 -0.00249  0.05192  0.04320
    H44      Y     0.02358 -0.02380 -0.09977  0.05208 -0.04466 -0.07264
    H44      Z    -0.11503  0.01665  0.01006 -0.07789 -0.03745  0.06959
    H45      X     0.01587  0.00849  0.01325  0.02402  0.02526 -0.02748
    H45      Y     0.04119 -0.02811 -0.10256  0.06415 -0.04406 -0.07457
    H45      Z    -0.05370  0.00350  0.02147 -0.03927 -0.02708  0.08310
    H46      X    -0.02114  0.01805  0.04273 -0.00873  0.02013  0.04648
    H46      Y    -0.01935 -0.01648 -0.12903  0.02969 -0.06284 -0.09632
    H46      Z    -0.08142  0.00935  0.02060 -0.05826 -0.03379  0.09417
    C47      X    -0.00446  0.02964  0.00457  0.01654  0.01148  0.01427
    C47      Y     0.02655 -0.07735  0.10108  0.01301  0.06433 -0.05016
    C47      Z     0.01841  0.05480 -0.01848  0.03991 -0.02651  0.04625
    H48      X    -0.00017 -0.00810  0.04800  0.00855  0.04472 -0.02292
    H48      Y     0.00798 -0.07428  0.10431  0.00516  0.06725 -0.07570
    H48      Z    -0.00372  0.07278 -0.03180  0.03456 -0.03645  0.03244
    H49      X    -0.01036  0.04331 -0.03053  0.00914 -0.01622  0.03092
    H49      Y     0.02153 -0.08592  0.11970  0.01093  0.07890 -0.07142
    H49      Z     0.04379  0.05762 -0.01509  0.05917 -0.02337  0.08293
    H50      X    -0.00212  0.04900  0.00274  0.03129  0.01186  0.02981
    H50      Y     0.05593 -0.09831  0.12810  0.02613  0.08606 -0.03409
    H50      Z     0.01019  0.06876 -0.02747  0.04196 -0.03279  0.04780
    C51      X    -0.01262 -0.00099 -0.02405  0.08761  0.01628  0.04334
    C51      Y     0.00044 -0.00314  0.01526 -0.05545 -0.01160 -0.03848
    C51      Z    -0.03640 -0.02147 -0.05841  0.01973  0.11490  0.04317
    H52      X    -0.00459  0.00138 -0.01062  0.12529 -0.02667  0.03017
    H52      Y     0.00856 -0.00179  0.02894 -0.08649 -0.03096 -0.04447
    H52      Z    -0.04358 -0.02308 -0.07158  0.02559  0.14156  0.05133
    H53      X    -0.02027 -0.00443 -0.04419  0.10502  0.04738  0.07346
    H53      Y    -0.00460 -0.00452  0.00029 -0.01744  0.00231 -0.02442
    H53      Z    -0.03334 -0.01924 -0.05147  0.03951  0.09430  0.02383
    H54      X    -0.01909 -0.00301 -0.03512  0.07131  0.04603  0.05622
    H54      Y    -0.00256 -0.00192  0.01803 -0.08316 -0.00165 -0.05820
    H54      Z    -0.04541 -0.02500 -0.07641  0.00330  0.15776  0.06935
    C55      X    -0.01280 -0.02125  0.02893  0.00887 -0.07164  0.04058
    C55      Y     0.02123  0.01435 -0.01207  0.02455  0.01666 -0.03458
    C55      Z     0.02215 -0.03885  0.02836  0.00381 -0.08272  0.04986
    H56      X    -0.00827 -0.02372  0.03436  0.02567 -0.09332  0.03760
    H56      Y     0.03385  0.02167 -0.01660  0.03111  0.02756 -0.04903
    H56      Z     0.01630 -0.04940  0.04028  0.02103 -0.12371  0.05945
    H57      X    -0.01683 -0.03572  0.04404  0.01131 -0.11563  0.06915
    H57      Y     0.02522  0.00957 -0.00766  0.00830  0.01055 -0.01162
    H57      Z     0.02842 -0.03087  0.01949 -0.01057 -0.05163  0.04423
    H58      X    -0.01920 -0.01948  0.02348 -0.01195 -0.04790  0.04735
    H58      Y     0.01737  0.01912 -0.01637  0.03802  0.02288 -0.05508
    H58      Z     0.03114 -0.04538  0.03707  0.00454 -0.10705  0.06717
    H59      X    -0.03492  0.02007  0.06964 -0.02786  0.02911  0.07702
    H59      Y    -0.03621 -0.00510 -0.04258  0.00312 -0.02287 -0.03037
    H59      Z    -0.04741  0.00429 -0.00218 -0.02269 -0.01948  0.00252
    H60      X    -0.00233  0.00312  0.01885  0.01390 -0.03790 -0.02345
    H60      Y     0.01297 -0.00300  0.02808 -0.06946 -0.03398 -0.03803
    H60      Z    -0.01279 -0.01835 -0.03427 -0.00271  0.07196  0.04261
    H61      X    -0.00357  0.01001 -0.00158  0.00638  0.01510 -0.01836
    H61      Y    -0.00226  0.01662 -0.01854  0.03145  0.02578 -0.04976
    H61      Z     0.00251 -0.03091  0.01620  0.01278 -0.05581  0.02079
    H62      X    -0.01256  0.07184 -0.04309  0.02057 -0.02188  0.04835
    H62      Y     0.03484 -0.04002  0.03715  0.01639  0.01418  0.00797
    H62      Z     0.04376  0.00364  0.01399  0.02837 -0.00633  0.03181
  
  vibration #           13       14       15       16       17       18
                  -------- -------- -------- -------- -------- --------
  frequencies       128.21   139.67   147.18   159.99   171.76   180.51
  intensities         2.93     1.42     0.09     3.15     0.95     1.24
  reduc. mass         1.39     0.81     0.59     2.81     1.05     5.61
  force const         0.01     0.01     0.01     0.04     0.02     0.11
    Rh1      X    -0.00497 -0.00845 -0.00101  0.02457 -0.00916  0.00729
    Rh1      Y    -0.00795 -0.00769 -0.01037  0.01045  0.00485 -0.03752
    Rh1      Z    -0.01212 -0.01023 -0.00690 -0.02664  0.02396 -0.02674
    O2       X    -0.03727  0.00758  0.01346  0.01084  0.00869 -0.01736
    O2       Y    -0.11181  0.09700  0.03782 -0.01069  0.00313  0.03045
    O2       Z    -0.02109 -0.01401  0.00076 -0.01400  0.02212 -0.03710
    C3       X    -0.03554  0.01202  0.01165 -0.00801  0.01624 -0.01836
    C3       Y    -0.03656  0.05985  0.02858 -0.01217 -0.01105  0.05363
    C3       Z    -0.02354 -0.02363  0.00304  0.02293  0.00869 -0.03648
    N4       X    -0.02859  0.00071  0.01092  0.01622  0.00649 -0.01701
    N4       Y     0.07560 -0.03013 -0.01814 -0.02324 -0.00299  0.00170
    N4       Z    -0.03102 -0.02500  0.00921  0.05961 -0.00643 -0.02572
    C5       X    -0.01585 -0.00833  0.01151  0.05249 -0.01362  0.00041
    C5       Y     0.05796 -0.02572 -0.03050 -0.04087  0.01620 -0.03506
    C5       Z    -0.02906 -0.02590  0.01253  0.06577 -0.01059 -0.01884
    C6       X     0.01318 -0.01888  0.00418  0.04284 -0.02015  0.01165
    C6       Y     0.03209 -0.01972 -0.02242 -0.01993  0.01616 -0.04330
    C6       Z    -0.01245 -0.03049  0.01364  0.05013 -0.01025 -0.00809
    C7       X     0.01952  0.00093 -0.00849  0.00305 -0.00252 -0.00472
    C7       Y     0.01152 -0.01117 -0.00854 -0.01461  0.00694 -0.01981
    C7       Z    -0.02604 -0.00239  0.00696  0.02948 -0.00461 -0.01209
    N8       X     0.05588  0.02216 -0.02771 -0.06946  0.01148 -0.00484
    N8       Y    -0.06026  0.03074  0.02829 -0.00909  0.00096  0.02079
    N8       Z    -0.03643  0.05938  0.01171 -0.06134  0.00885  0.02073
    H9       X     0.02598 -0.01075 -0.01252 -0.01542 -0.00282  0.00117
    H9       Y     0.03982 -0.02428 -0.01693 -0.01078  0.00993 -0.03206
    H9       Z    -0.00077 -0.03238  0.01367  0.04170 -0.01130 -0.00010
    H10      X     0.04004 -0.02650 -0.00333  0.05600 -0.03175  0.02240
    H10      Y     0.01954 -0.01578 -0.02581 -0.02368  0.02112 -0.05598
    H10      Z     0.00042 -0.03451  0.01304  0.05575 -0.01560  0.00006
    H11      X    -0.02934  0.00434  0.01078  0.00153  0.01244 -0.01984
    H11      Y     0.11251 -0.03932 -0.01410 -0.01902 -0.01769  0.03159
    H11      Z    -0.03066 -0.03142  0.00919  0.08617 -0.01679 -0.02145
    H12      X    -0.04056  0.02521  0.01226 -0.04147  0.02810 -0.01832
    H12      Y    -0.05643  0.09758  0.05728 -0.00465 -0.03052  0.11566
    H12      Z    -0.02128 -0.02854  0.00044  0.02598  0.00911 -0.04220
    P13      X    -0.00487 -0.00017 -0.00925 -0.01923  0.03175  0.01829
    P13      Y    -0.00026 -0.02682  0.02210  0.00195  0.01099  0.01440
    P13      Z    -0.00233 -0.01726 -0.00366 -0.01973 -0.00147  0.00996
    P14      X     0.00545 -0.00147 -0.00124 -0.02472 -0.02324 -0.00813
    P14      Y    -0.00085 -0.00242 -0.02559  0.01534 -0.01254 -0.00691
    P14      Z     0.01620  0.03311 -0.01490 -0.00081  0.00395  0.00952
    C15      X    -0.00312  0.00373 -0.00826 -0.03577 -0.01044  0.00328
    C15      Y     0.00554 -0.01070  0.02932  0.00453 -0.00703 -0.00419
    C15      Z     0.00864  0.01653 -0.01166 -0.00804  0.00351  0.01325
    C16      X     0.01581  0.00969 -0.01342 -0.01845  0.02533  0.00821
    C16      Y     0.00314 -0.01807  0.00392  0.01259  0.00527  0.00718
    C16      Z     0.01469  0.02841  0.00831 -0.00853 -0.00490  0.00089
    H17      X    -0.00682 -0.01043  0.00182  0.03365 -0.01110  0.00755
    H17      Y    -0.01614  0.00202 -0.01382 -0.00862  0.00520 -0.03599
    H17      Z    -0.01716 -0.00827 -0.00141 -0.02469  0.01667 -0.03148
    H18      X     0.04073 -0.00798 -0.01734  0.03823 -0.03636  0.02688
    H18      Y    -0.01014 -0.00873 -0.00856  0.01301  0.00791 -0.03645
    H18      Z    -0.04121 -0.00849 -0.00014 -0.03576  0.02215 -0.04123
    C19      X     0.00463  0.01124  0.00095 -0.00141  0.02747  0.00360
    C19      Y    -0.01876 -0.03612 -0.00281 -0.01939  0.01871  0.02962
    C19      Z     0.01412 -0.02985  0.03095 -0.01467 -0.00674  0.03730
    C20      X     0.00483  0.00409  0.00039 -0.00526  0.03220  0.00908
    C20      Y    -0.02142 -0.02879  0.00352 -0.01945 -0.00093  0.02674
    C20      Z     0.01821 -0.02332  0.01881  0.00469 -0.02614  0.01033
    C21      X    -0.00607 -0.01293 -0.00913 -0.01580 -0.02164 -0.00890
    C21      Y     0.01722  0.02634 -0.01980  0.01514 -0.00618  0.00964
    C21      Z     0.00241  0.02399 -0.03539  0.02291  0.00405  0.01604
    C22      X    -0.00911 -0.01400 -0.00074 -0.02087 -0.02321 -0.01015
    C22      Y     0.01985  0.02011 -0.02803  0.01050 -0.02195  0.00087
    C22      Z     0.00230  0.01855 -0.04109  0.00748 -0.01426  0.01039
    C23      X     0.02807  0.01645 -0.01853  0.01338  0.08044  0.02288
    C23      Y     0.01173 -0.01198  0.01203  0.02665  0.02997  0.00809
    C23      Z     0.02755  0.04464  0.05265 -0.01642 -0.01115 -0.02683
    H24      X     0.04653  0.02245 -0.02029  0.03519  0.13379  0.03136
    H24      Y     0.00942 -0.02223 -0.01447  0.03325  0.04721  0.02788
    H24      Z     0.03192  0.05535  0.07815 -0.01994 -0.02173 -0.04530
    C25      X    -0.02451  0.00062 -0.00420 -0.05043 -0.07231 -0.01110
    C25      Y     0.01484  0.01246  0.06958  0.00645 -0.02363 -0.03734
    C25      Z     0.01890  0.02311 -0.00590 -0.00282  0.02307  0.01262
    H26      X    -0.04606 -0.00755 -0.00565 -0.07605 -0.12672 -0.01950
    H26      Y     0.01579  0.02203  0.09194 -0.00154 -0.03826 -0.05589
    H26      Z     0.01510  0.01287 -0.02768  0.00123  0.03066  0.02949
    C27      X     0.01113  0.01608 -0.01609  0.01969  0.04913  0.01909
    C27      Y     0.02247  0.01000  0.05132  0.03538  0.02573 -0.01769
    C27      Z     0.03691  0.05051  0.06188 -0.01774  0.00062 -0.03204
    H28      X     0.01925  0.02239 -0.02043  0.05197  0.09091  0.03082
    H28      Y     0.02879  0.01605  0.05529  0.05011  0.04490 -0.01615
    H28      Z     0.04708  0.06356  0.08881 -0.02348 -0.00591 -0.05094
    C29      X    -0.01941  0.00826 -0.00369 -0.02210 -0.05532 -0.00985
    C29      Y     0.02184  0.02104  0.08130  0.02071 -0.01360 -0.04400
    C29      Z     0.03423  0.03989  0.03303 -0.00785  0.02688 -0.00991
    H30      X    -0.03743  0.00785  0.00152 -0.02721 -0.10760 -0.02474
    H30      Y     0.02712  0.03519  0.11237  0.02083 -0.03039 -0.06618
    H30      Z     0.04206  0.04285  0.03715 -0.00595  0.04323 -0.00865
    C31      X    -0.01067 -0.01210 -0.00122 -0.00945 -0.01115 -0.00617
    C31      Y     0.02871  0.03497 -0.01718  0.01342 -0.01214  0.01150
    C31      Z    -0.00202  0.01379 -0.04553  0.01143 -0.01354  0.00736
    H32      X    -0.01711 -0.01569 -0.00177 -0.00718 -0.00281 -0.00494
    H32      Y     0.03301  0.03960 -0.01609  0.01373 -0.01423  0.01340
    H32      Z    -0.01294 -0.00214 -0.05006  0.00715 -0.01522 -0.00252
    H33      X    -0.00728 -0.00767 -0.00561 -0.00163 -0.02033 -0.00628
    H33      Y     0.04029  0.04848 -0.01301  0.01472 -0.01485  0.01849
    H33      Z     0.00551  0.02204 -0.03990  0.00830 -0.01085  0.01296
    C34      X    -0.00955 -0.00996 -0.00449 -0.00778 -0.01538 -0.00402
    C34      Y     0.02086  0.02957 -0.01473  0.01226  0.00131  0.01276
    C34      Z    -0.00370  0.01685 -0.04824  0.02670 -0.01866  0.00610
    H35      X    -0.01247 -0.00977 -0.00547  0.00183 -0.01934 -0.00751
    H35      Y     0.02441  0.03227 -0.00130  0.00538  0.02075  0.01900
    H35      Z    -0.00559  0.01660 -0.05064  0.03230 -0.02316  0.00371
    H36      X    -0.01141 -0.01331  0.00017 -0.01712 -0.00579 -0.00218
    H36      Y     0.01561  0.02571 -0.01893  0.01429 -0.00590  0.00806
    H36      Z    -0.00823  0.01481 -0.05578  0.03512 -0.03339 -0.00064
    C37      X     0.01036  0.01652  0.00234  0.01156  0.00499 -0.01807
    C37      Y    -0.01984 -0.03650 -0.00364 -0.02058  0.00757  0.03509
    C37      Z     0.01677 -0.02155  0.02467  0.00206 -0.02396  0.01230
    H38      X     0.01166  0.02247  0.00254  0.01802 -0.00174 -0.02967
    H38      Y    -0.02163 -0.03584 -0.00534 -0.02120  0.01118  0.04230
    H38      Z     0.02094 -0.01058  0.02660  0.01520 -0.04095 -0.01729
    H39      X     0.01314  0.02224 -0.00099  0.01937 -0.00623 -0.04572
    H39      Y    -0.02049 -0.04098 -0.01060 -0.02418  0.01537  0.03566
    H39      Z     0.01435 -0.02875  0.02097 -0.00585 -0.01095  0.02988
    C40      X     0.00918  0.01592  0.00698  0.00949  0.01211  0.00027
    C40      Y    -0.01777 -0.03419 -0.00216 -0.01900  0.00822  0.02355
    C40      Z     0.01786 -0.02597  0.03692 -0.00149 -0.01502  0.03883
    H41      X     0.00850  0.01210  0.01188  0.00530  0.01790  0.01976
    H41      Y    -0.01395 -0.03498  0.01084 -0.01334  0.00629  0.04312
    H41      Z     0.02260 -0.02373  0.04739  0.00811 -0.02190  0.04500
    H42      X     0.01212  0.01745  0.01215  0.01744 -0.00043  0.00303
    H42      Y    -0.02241 -0.03414 -0.01708 -0.02546  0.01074  0.00358
    H42      Z     0.01964 -0.02689  0.04479 -0.00117 -0.01024  0.05160
    C43      X    -0.00236 -0.01567  0.00068 -0.03235 -0.02661 -0.01919
    C43      Y     0.02485  0.05116 -0.02223  0.03525 -0.02936  0.02973
    C43      Z    -0.01467  0.01862 -0.07089  0.06618  0.03245  0.03886
    H44      X    -0.00606 -0.03892  0.01338 -0.06603 -0.02844 -0.05374
    H44      Y     0.02361  0.05034 -0.02328  0.03386 -0.04839  0.02037
    H44      Z    -0.00923  0.03102 -0.07357  0.08445  0.08982  0.08163
    H45      X     0.01454  0.00335  0.01842 -0.04190 -0.03570 -0.00877
    H45      Y     0.02173  0.04830 -0.02537  0.03209 -0.07190  0.00783
    H45      Z    -0.02345  0.00924 -0.07953  0.06653 -0.00065  0.01620
    H46      X    -0.01216 -0.01521 -0.02193 -0.00303 -0.01694 -0.00391
    H46      Y     0.03711  0.07873 -0.02432  0.06201  0.01492  0.08411
    H46      Z    -0.02492  0.01387 -0.08888  0.08496  0.03185  0.04103
    C47      X    -0.00278 -0.00866 -0.00253 -0.02635 -0.02766 -0.00762
    C47      Y     0.06367  0.05849 -0.03768 -0.02238 -0.04269  0.02154
    C47      Z    -0.01062  0.01385 -0.06314  0.01433 -0.06570  0.00660
    H48      X     0.03025  0.01873  0.00648 -0.05129 -0.01054  0.00809
    H48      Y     0.08376  0.08125 -0.02830 -0.03642 -0.03251  0.03346
    H48      Z    -0.00130  0.02843 -0.05656  0.00892 -0.06155  0.01368
    H49      X    -0.02753 -0.03239  0.01181 -0.00579  0.00347 -0.02079
    H49      Y     0.08461  0.07910 -0.03702 -0.03809 -0.04565  0.03272
    H49      Z    -0.03222 -0.00834 -0.09034  0.02723 -0.11120 -0.00484
    H50      X    -0.00672 -0.00653 -0.02540 -0.02636 -0.07736 -0.00653
    H50      Y     0.06097  0.04860 -0.05786 -0.02317 -0.07251  0.01748
    H50      Z    -0.01171  0.01749 -0.06600  0.01461 -0.07637  0.00826
    C51      X     0.03748  0.00261  0.02829  0.03734  0.07234  0.01707
    C51      Y    -0.03491 -0.03354 -0.00989 -0.03764 -0.02937  0.03212
    C51      Z     0.03181 -0.04080  0.02204  0.02196 -0.05935  0.04003
    H52      X     0.02541  0.01160  0.02631  0.03063  0.21112  0.04195
    H52      Y    -0.03880 -0.02368 -0.01248 -0.04785 -0.07321 -0.00637
    H52      Z     0.03830 -0.04998  0.02414  0.03024 -0.07987  0.05578
    H53      X     0.06235 -0.00175  0.04772  0.06769  0.04699  0.01271
    H53      Y    -0.02410 -0.03897 -0.00014 -0.02035  0.02770  0.06305
[...]
  frequencies      3194.96  3200.09  3209.44  3219.49  3261.07  3588.27
  intensities         2.66     0.19     6.66     5.89     0.31    88.11
  reduc. mass         0.25     0.34     0.24     0.34     0.57     0.94
  force const         1.48     2.05     1.44     2.07     3.57     7.13
    Rh1      X    -0.00000 -0.00001 -0.00000  0.00000  0.00003 -0.00000
    Rh1      Y    -0.00000  0.00001  0.00001 -0.00001 -0.00002 -0.00001
    Rh1      Z    -0.00000 -0.00001  0.00000  0.00000 -0.00004 -0.00001
    O2       X    -0.00000 -0.00001  0.00000  0.00001 -0.00000  0.00138
    O2       Y     0.00000 -0.00000 -0.00000  0.00000  0.00003 -0.00009
    O2       Z    -0.00001 -0.00001 -0.00000  0.00002 -0.00004  0.00037
    C3       X     0.00001  0.00003  0.00000 -0.00003  0.00004  0.00081
    C3       Y     0.00000  0.00000 -0.00000 -0.00000 -0.00020 -0.00004
    C3       Z     0.00001  0.00003 -0.00000 -0.00004 -0.00030 -0.00246
    N4       X    -0.00000 -0.00000 -0.00000 -0.00000 -0.00013 -0.06344
    N4       Y    -0.00000 -0.00000  0.00000  0.00000 -0.00008 -0.00159
    N4       Z    -0.00000  0.00000  0.00000 -0.00001 -0.00042 -0.03230
    C5       X     0.00000 -0.00001 -0.00000  0.00001 -0.00051  0.00036
    C5       Y     0.00001 -0.00001 -0.00000  0.00002 -0.00057  0.00040
    C5       Z     0.00000  0.00000 -0.00000 -0.00000  0.00052  0.00065
    C6       X    -0.00000  0.00002 -0.00000 -0.00003 -0.02559  0.00005
    C6       Y    -0.00002  0.00003  0.00000 -0.00003 -0.00841  0.00022
    C6       Z    -0.00001 -0.00001  0.00001  0.00000  0.09041  0.00034
    C7       X    -0.00000  0.00002  0.00000 -0.00002  0.00019  0.00007
    C7       Y    -0.00000  0.00001  0.00000 -0.00001  0.00018 -0.00012
    C7       Z     0.00000 -0.00001 -0.00000  0.00001  0.00005 -0.00005
    N8       X     0.00000 -0.00001 -0.00000  0.00001  0.00007 -0.00002
    N8       Y    -0.00000 -0.00001  0.00000  0.00001  0.00000  0.00006
    N8       Z    -0.00000  0.00001  0.00000 -0.00001 -0.00009 -0.00006
    H9       X     0.00006 -0.00013 -0.00002  0.00011  0.11977 -0.00040
    H9       Y     0.00009 -0.00030 -0.00000  0.00020  0.38707 -0.00041
    H9       Z    -0.00011  0.00031  0.00000 -0.00021 -0.39548 -0.00028
    H10      X    -0.00007  0.00000  0.00005  0.00000  0.18478 -0.00006
    H10      Y     0.00010 -0.00003 -0.00006  0.00002 -0.27854  0.00051
    H10      Z     0.00027 -0.00012 -0.00014  0.00009 -0.67375  0.00038
    H11      X     0.00001 -0.00005 -0.00001  0.00009  0.00017  0.84657
    H11      Y     0.00003  0.00002 -0.00002 -0.00001  0.00014  0.01650
    H11      Z     0.00000 -0.00004 -0.00000  0.00006 -0.00067  0.45230
    H12      X    -0.00003 -0.00006  0.00000  0.00007  0.00024 -0.00122
    H12      Y    -0.00002 -0.00002  0.00001  0.00002  0.00010  0.00065
    H12      Z    -0.00014 -0.00034  0.00005  0.00034  0.00166  0.01076
    P13      X     0.00004 -0.00002 -0.00002  0.00000 -0.00002 -0.00002
    P13      Y     0.00001 -0.00008 -0.00006  0.00005  0.00001 -0.00000
    P13      Z     0.00009 -0.00010 -0.00008  0.00004  0.00001 -0.00002
    P14      X    -0.00003  0.00001  0.00001 -0.00001 -0.00001  0.00002
    P14      Y     0.00010  0.00007 -0.00007 -0.00004  0.00000  0.00002
    P14      Z    -0.00000  0.00005 -0.00002 -0.00004  0.00004 -0.00001
    C15      X    -0.00038  0.00061  0.00054 -0.00046 -0.00000  0.00000
    C15      Y     0.00021 -0.00082 -0.00021  0.00047  0.00001  0.00000
    C15      Z    -0.00109  0.00093  0.00161 -0.00093 -0.00000  0.00002
    C16      X     0.00067  0.00054 -0.00070 -0.00044  0.00001 -0.00000
    C16      Y    -0.00131 -0.00079  0.00156  0.00075 -0.00002 -0.00001
    C16      Z     0.00043  0.00081 -0.00020 -0.00047 -0.00000  0.00000
    H17      X    -0.00002 -0.00003  0.00001  0.00004 -0.00032 -0.00000
    H17      Y     0.00001 -0.00008 -0.00001  0.00007 -0.00008  0.00009
    H17      Z     0.00003  0.00001  0.00001 -0.00004  0.00004 -0.00036
    H18      X     0.00002 -0.00000 -0.00000 -0.00000  0.00152 -0.00023
    H18      Y    -0.00007  0.00004 -0.00008 -0.00013  0.00108  0.00013
    H18      Z     0.00011  0.00006 -0.00010 -0.00006 -0.00131 -0.00042
    C19      X     0.00059 -0.00097 -0.00061  0.00033 -0.00001 -0.00000
    C19      Y    -0.00041  0.00064  0.00042 -0.00022  0.00001 -0.00001
    C19      Z     0.00054 -0.00088 -0.00056  0.00028 -0.00003  0.00001
    C20      X     0.00011 -0.00016 -0.00011  0.00005  0.00000  0.00003
    C20      Y    -0.00010  0.00020  0.00013 -0.00008  0.00002 -0.00000
    C20      Z     0.00007 -0.00017 -0.00011  0.00007 -0.00001  0.00002
    C21      X    -0.00005 -0.00011  0.00005  0.00005 -0.00000 -0.00000
    C21      Y     0.00013  0.00017 -0.00010 -0.00005  0.00000  0.00001
    C21      Z    -0.00020 -0.00022  0.00014  0.00008  0.00002 -0.00002
    C22      X    -0.00008 -0.00008  0.00006  0.00002 -0.00000 -0.00002
    C22      Y     0.00045  0.00050 -0.00032 -0.00015 -0.00000  0.00001
    C22      Z    -0.00050 -0.00055  0.00036  0.00018  0.00000 -0.00001
    C23      X    -0.00478 -0.00465  0.00284  0.00102 -0.00000  0.00000
    C23      Y     0.03451  0.03531 -0.02684 -0.01471  0.00002  0.00000
    C23      Z     0.03335  0.03494 -0.02889 -0.01764  0.00002  0.00001
    H24      X     0.05039  0.05144 -0.03855 -0.02083  0.00003  0.00000
    H24      Y    -0.39501 -0.40452  0.31026  0.17273 -0.00020 -0.00001
    H24      Z    -0.39779 -0.40800  0.31582  0.17800 -0.00019 -0.00004
    C25      X    -0.00264  0.00445  0.00423 -0.00336  0.00000  0.00001
    C25      Y     0.02329 -0.03723 -0.02956  0.01959 -0.00000 -0.00001
    C25      Z     0.02634 -0.04125 -0.03028  0.01804 -0.00000 -0.00001
    H26      X     0.03560 -0.05604 -0.04262  0.02682 -0.00001 -0.00001
    H26      Y    -0.28089  0.44031  0.32874 -0.20125  0.00002  0.00006
    H26      Z    -0.30151  0.47216  0.34956 -0.21148  0.00001  0.00004
    C27      X     0.01788  0.00666  0.02062  0.02328 -0.00000 -0.00000
    C27      Y    -0.03646 -0.01485 -0.03996 -0.04795  0.00000  0.00000
    C27      Z     0.00780  0.00113  0.01188  0.00934 -0.00000 -0.00000
    H28      X    -0.21290 -0.08234 -0.22978 -0.25819  0.00001  0.00003
    H28      Y     0.43068  0.16770  0.46220  0.52285 -0.00003 -0.00004
    H28      Z    -0.09686 -0.03563 -0.10797 -0.11648  0.00001  0.00002
    C29      X    -0.01257  0.00972 -0.01450  0.01952 -0.00000 -0.00000
    C29      Y     0.00662 -0.00363  0.00990 -0.00925  0.00000  0.00000
    C29      Z    -0.03336  0.02793 -0.03525  0.05334 -0.00000 -0.00000
    H30      X     0.14879 -0.12010  0.15565 -0.21869  0.00001  0.00002
    H30      Y    -0.07769  0.06138 -0.08403  0.11304 -0.00001 -0.00002
    H30      Z     0.39600 -0.32212  0.41039 -0.58379  0.00002  0.00005
    C31      X    -0.00005 -0.00005  0.00004  0.00001 -0.00000 -0.00001
    C31      Y     0.00010  0.00009 -0.00007 -0.00003 -0.00002  0.00003
    C31      Z    -0.00011 -0.00009  0.00006  0.00001  0.00001 -0.00002
    H32      X    -0.00009 -0.00011  0.00007  0.00006  0.00004 -0.00003
    H32      Y    -0.00023 -0.00041  0.00021  0.00028  0.00011 -0.00022
    H32      Z    -0.00004 -0.00016  0.00008  0.00011  0.00001  0.00002
    H33      X     0.00067  0.00061 -0.00044 -0.00013 -0.00004  0.00010
    H33      Y    -0.00096 -0.00085  0.00062  0.00017  0.00006 -0.00005
    H33      Z     0.00142  0.00128 -0.00092 -0.00029 -0.00009  0.00023
    C34      X    -0.00023 -0.00023  0.00015  0.00007  0.00000  0.00000
    C34      Y     0.00053  0.00055 -0.00037 -0.00017 -0.00001  0.00001
    C34      Z    -0.00059 -0.00059  0.00039  0.00014  0.00001  0.00000
    H35      X    -0.00105 -0.00099  0.00065  0.00016 -0.00001  0.00001
    H35      Y     0.00037  0.00026 -0.00021 -0.00004  0.00003 -0.00000
    H35      Z     0.00232  0.00216 -0.00140 -0.00026  0.00005 -0.00006
    H36      X     0.00389  0.00395 -0.00264 -0.00112 -0.00005  0.00005
    H36      Y    -0.00711 -0.00726  0.00487  0.00215  0.00010 -0.00015
    H36      Z     0.00678  0.00691 -0.00473 -0.00221 -0.00007  0.00008
    C37      X     0.00034 -0.00054 -0.00035  0.00016  0.00004 -0.00001
    C37      Y    -0.00033  0.00051  0.00034 -0.00015 -0.00004 -0.00000
    C37      Z     0.00032 -0.00052 -0.00035  0.00019 -0.00001 -0.00001
    H38      X    -0.00166  0.00245  0.00160 -0.00050 -0.00049 -0.00005
    H38      Y     0.00088 -0.00125 -0.00082  0.00024  0.00024  0.00007
    H38      Z     0.00080 -0.00106 -0.00070  0.00019  0.00032  0.00009
    H39      X    -0.00322  0.00507  0.00344 -0.00181 -0.00005  0.00004
    H39      Y     0.00372 -0.00582 -0.00390  0.00198  0.00016 -0.00003
    H39      Z    -0.00474  0.00745  0.00497 -0.00246 -0.00006  0.00005
    C40      X     0.00008 -0.00009 -0.00006  0.00002 -0.00001  0.00000
    C40      Y    -0.00009  0.00012  0.00008 -0.00003 -0.00001 -0.00000
    C40      Z     0.00008 -0.00011 -0.00008  0.00004  0.00000 -0.00000
    H41      X    -0.00090  0.00125  0.00084 -0.00033  0.00025  0.00000
    H41      Y     0.00124 -0.00176 -0.00118  0.00050 -0.00004 -0.00003
    H41      Z    -0.00095  0.00130  0.00088 -0.00034  0.00009 -0.00001
    H42      X    -0.00008  0.00009  0.00005 -0.00004  0.00001  0.00002
    H42      Y    -0.00007  0.00023  0.00012 -0.00014  0.00014  0.00005
    H42      Z    -0.00009  0.00029  0.00013 -0.00019  0.00015  0.00008
    C43      X    -0.00010 -0.00013  0.00009  0.00006  0.00000 -0.00001
    C43      Y     0.00075  0.00076 -0.00050 -0.00024  0.00001  0.00000
    C43      Z    -0.00070 -0.00071  0.00047  0.00021  0.00001  0.00000
    H44      X    -0.00039 -0.00039  0.00023  0.00013 -0.00001 -0.00004
    H44      Y    -0.00327 -0.00321  0.00214  0.00096 -0.00011 -0.00004
    H44      Z    -0.00101 -0.00093  0.00058  0.00023 -0.00004 -0.00005
    H45      X     0.00308  0.00318 -0.00204 -0.00094 -0.00004  0.00009
    H45      Y    -0.00626 -0.00641  0.00414  0.00203  0.00007 -0.00010
    H45      Z     0.00756  0.00779 -0.00507 -0.00254 -0.00009  0.00012
    H46      X    -0.00154 -0.00127  0.00084  0.00014 -0.00002  0.00004
    H46      Y     0.00037  0.00030 -0.00018 -0.00003  0.00000  0.00000
    H46      Z     0.00204  0.00179 -0.00118 -0.00024  0.00000 -0.00006
    C47      X    -0.00003 -0.00001  0.00001 -0.00001 -0.00000 -0.00001
    C47      Y     0.00008  0.00006 -0.00004 -0.00003 -0.00001  0.00003
    C47      Z    -0.00006 -0.00008  0.00005  0.00002  0.00004 -0.00003
    H48      X     0.00069  0.00066 -0.00048 -0.00021 -0.00010  0.00022
    H48      Y    -0.00120 -0.00108  0.00078  0.00033  0.00017  0.00005
    H48      Z     0.00113  0.00102 -0.00074 -0.00034 -0.00017  0.00012
    H49      X    -0.00014 -0.00024  0.00015  0.00023  0.00002 -0.00006
    H49      Y    -0.00023 -0.00026  0.00018  0.00031  0.00005 -0.00035
    H49      Z    -0.00011 -0.00012  0.00009  0.00013 -0.00000  0.00003
    H50      X    -0.00007 -0.00018  0.00009  0.00006  0.00010 -0.00000
    H50      Y     0.00010  0.00019 -0.00012 -0.00010 -0.00006 -0.00001
    H50      Z     0.00010  0.00040 -0.00020 -0.00016 -0.00027  0.00020
    C51      X     0.00031 -0.00044 -0.00028  0.00013 -0.00003  0.00000
    C51      Y    -0.00012  0.00020  0.00014 -0.00007  0.00001  0.00001
    C51      Z     0.00027 -0.00042 -0.00026  0.00015 -0.00004  0.00000
    H52      X    -0.00062  0.00095  0.00059 -0.00036  0.00008  0.00005
    H52      Y    -0.00104  0.00145  0.00083 -0.00046  0.00019 -0.00004
    H52      Z    -0.00177  0.00255  0.00156 -0.00085  0.00025 -0.00005
    H53      X    -0.00224  0.00345  0.00214 -0.00123  0.00027  0.00001
    H53      Y     0.00234 -0.00368 -0.00229  0.00122 -0.00025 -0.00003
    H53      Z    -0.00207  0.00314  0.00190 -0.00095  0.00024 -0.00000
    H54      X    -0.00080  0.00086  0.00057  0.00007 -0.00006 -0.00009
    H54      Y     0.00019 -0.00024 -0.00016 -0.00001 -0.00000 -0.00001
    H54      Z     0.00054 -0.00057 -0.00037 -0.00002  0.00001  0.00008
    C55      X     0.00010 -0.00016 -0.00009  0.00007 -0.00002 -0.00000
    C55      Y    -0.00007  0.00011  0.00007 -0.00003  0.00000 -0.00000
    C55      Z     0.00012 -0.00015 -0.00009  0.00006 -0.00004 -0.00001
    H56      X    -0.00016  0.00045  0.00024 -0.00019 -0.00007 -0.00008
    H56      Y     0.00010 -0.00032 -0.00018  0.00017  0.00004  0.00004
    H56      Z     0.00019 -0.00045 -0.00026  0.00022  0.00007  0.00001
    H57      X    -0.00109  0.00156  0.00095 -0.00055  0.00015  0.00005
    H57      Y     0.00131 -0.00192 -0.00120  0.00067 -0.00021 -0.00007
    H57      Z    -0.00157  0.00230  0.00143 -0.00078  0.00018  0.00002
    H58      X    -0.00021  0.00040  0.00022 -0.00025  0.00012  0.00005
    H58      Y    -0.00036  0.00065  0.00039 -0.00041  0.00013  0.00008
    H58      Z    -0.00031  0.00047  0.00027 -0.00030  0.00013  0.00008
    H59      X     0.00052  0.00075 -0.00046 -0.00031 -0.00005 -0.00023
    H59      Y    -0.00144 -0.00173  0.00102  0.00057  0.00027  0.00004
    H59      Z     0.00169  0.00169 -0.00107 -0.00051 -0.00036  0.00027
    H60      X    -0.00108  0.00153  0.00099 -0.00046  0.00057  0.00008
    H60      Y     0.00086 -0.00131 -0.00088  0.00046 -0.00073  0.00001
    H60      Z    -0.00088  0.00169  0.00111 -0.00065  0.00016 -0.00003
    H61      X    -0.00728  0.01131  0.00732 -0.00372  0.00015  0.00002
    H61      Y     0.00591 -0.00922 -0.00606  0.00324 -0.00005  0.00005
    H61      Z    -0.00838  0.01302  0.00851 -0.00443  0.00023  0.00006
    H62      X     0.00145  0.00153 -0.00103 -0.00053 -0.00001  0.00007
    H62      Y    -0.00650 -0.00667  0.00440  0.00199  0.00007 -0.00001
    H62      Z     0.00569  0.00593 -0.00392 -0.00181 -0.00005  0.00011
  
  Number of imaginary frequencies:   1
   
  Writing vibrational animation data to 4RR-Me-DuPHOSpro-RfromJCTCSI_isomer3.vib
  Writing vibrational spectrum data to 4RR-Me-DuPHOSpro-RfromJCTCSI_isomer3_vib.spm
  rotational symmetry number:  1

  rotational temperatures (K):      0.008367      0.007735      0.005665
   
    1 vibrational frequencies below  10.0 cm-1 not included in zero-point
  energy or thermochemical analysis.  Set freqcut to change the frequency
  cutoff value.

  vibrational temperatures:
       mode:      2        3        4        5        6        7
  temp. (K):    36.06    67.22    81.24    82.01    95.71   109.03
   
       mode:      8        9       10       11       12       13
  temp. (K):   119.54   132.73   138.52   148.64   169.53   184.46
   
       mode:     14       15       16       17       18       19
  temp. (K):   200.95   211.75   230.19   247.12   259.72   278.51
   
       mode:     20       21       22       23       24       25
  temp. (K):   298.95   306.17   329.91   335.70   341.43   346.51
   
       mode:     26       27       28       29       30       31
  temp. (K):   351.99   359.15   362.33   372.31   387.25   410.45
   
       mode:     32       33       34       35       36       37
  temp. (K):   475.84   487.96   496.19   513.90   535.29   545.25
   
       mode:     38       39       40       41       42       43
  temp. (K):   551.25   577.32   582.59   610.62   656.58   664.53
   
       mode:     44       45       46       47       48       49
  temp. (K):   672.00   695.50   727.82   736.56   765.70   779.26
   
       mode:     50       51       52       53       54       55
  temp. (K):   790.02   821.68   827.99   859.11   881.26   886.84
   
       mode:     56       57       58       59       60       61
  temp. (K):   906.48   921.55   953.35   988.47  1034.61  1069.94
   
       mode:     62       63       64       65       66       67
  temp. (K):  1071.59  1075.54  1122.92  1160.16  1198.13  1199.83
   
       mode:     68       69       70       71       72       73
  temp. (K):  1231.19  1232.78  1292.09  1297.13  1339.37  1352.98
   
       mode:     74       75       76       77       78       79
  temp. (K):  1354.80  1360.85  1363.11  1420.67  1437.95  1441.66
   
       mode:     80       81       82       83       84       85
  temp. (K):  1448.57  1449.19  1458.12  1475.52  1480.08  1481.76
   
       mode:     86       87       88       89       90       91
  temp. (K):  1486.01  1526.68  1532.90  1546.23  1551.29  1577.96
   
       mode:     92       93       94       95       96       97
  temp. (K):  1578.87  1581.52  1588.57  1608.57  1638.59  1639.35
   
       mode:     98       99      100      101      102      103
  temp. (K):  1640.79  1675.76  1705.36  1707.72  1732.63  1733.49
   
       mode:    104      105      106      107      108      109
  temp. (K):  1762.85  1763.92  1825.48  1842.21  1850.52  1855.93
   
       mode:    110      111      112      113      114      115
  temp. (K):  1864.47  1867.05  1889.69  1897.29  1902.04  1913.82
   
       mode:    116      117      118      119      120      121
  temp. (K):  1917.35  1956.14  1961.59  1965.38  1966.72  1971.82
   
       mode:    122      123      124      125      126      127
  temp. (K):  2015.05  2056.17  2058.22  2058.55  2060.51  2114.62
   
       mode:    128      129      130      131      132      133
  temp. (K):  2148.24  2153.03  2155.44  2156.65  2160.13  2160.67
   
       mode:    134      135      136      137      138      139
  temp. (K):  2163.75  2166.52  2168.90  2170.60  2171.06  2174.73
   
       mode:    140      141      142      143      144      145
  temp. (K):  2175.75  2176.74  2212.78  2321.01  2343.01  2423.21
   
       mode:    146      147      148      149      150      151
  temp. (K):  2838.50  3002.14  3339.14  4365.44  4366.06  4373.38
   
       mode:    152      153      154      155      156      157
  temp. (K):  4377.13  4389.41  4391.74  4391.83  4393.59  4398.55
   
       mode:    158      159      160      161      162      163
  temp. (K):  4398.77  4402.01  4403.86  4451.15  4457.83  4459.15
   
       mode:    164      165      166      167      168      169
  temp. (K):  4464.21  4481.13  4487.72  4489.48  4493.04  4500.19
   
       mode:    170      171      172      173      174      175
  temp. (K):  4506.23  4509.29  4514.33  4521.32  4553.67  4596.83
   
       mode:    176      177      178      179      180
  temp. (K):  4604.21  4617.66  4632.12  4691.94  5162.72
   
   
  Thermodynamic properties calculated assuming an ideal gas

  In the table below, the units for temperature
  are kelvins, the units for U, H, and G are
  kJ/mol and the units for Cv and S are J/(mol K)

  The zero point energy (ZPE):   1366.792 kJ/mol
  is not included in U, H, or G in the table below
  
 
  =============================================================================
  Thermodynamic properties for P =     1.00 atm, calculated at   1 temperatures


  T =   298.15 K, P =     1.00 atm
   
                  U         Cv          S          H          G        ln(Q)
              =========  =========  =========  =========  =========  =========
  trans.          3.718     12.472    186.429      6.197    -49.386   19.92225
  rot.            3.718     12.472    149.895      3.718    -40.973   16.52816
  vib.           73.347    476.330    466.546     73.347    -65.754   26.52476
  elec.           0.000      0.000      0.000      0.000      0.000    0.00000
  ----------------------------------------------------------------------------
  total          80.784    501.274    802.869     83.263   -156.113   62.97517
   
   Total internal energy, Utot(SCFE + ZPE + U):   -1835.085567 hartrees
              Total enthalpy, Htot (Utot + pV):   -1835.084623 hartrees
    Total Gibbs free energy, Gtot (Htot - T*S):   -1835.175797 hartrees
   
  Peak memory usage:   1682 Mb
  
  end of program freq
   
 Time(freq)  user:        1.4  user+sys:        1.4  wallclock:        3.1

 Total cpu seconds     user:   19931.562   user+sys:   19931.562
  
 Total elapsed time:    6533 seconds

Job 4RR-Me-DuPHOSpro-RfromJCTCSI_isomer3 completed on seskscpn117.prim.scp at Wed Oct 18 12:09:56 2023
