Job 5RR-Me-DuPHOSpro-SfromJCTCSI_isomer4 started on seskscpn119.prim.scp at Wed Oct 18 10:21:03 2023
jobid: seskscpn324-0-652fb16d

  +--------------------------------------------------------------------+
  |  Jaguar version 10.6, release  12                                  |
  |                                                                    |
  |  Copyright Schrodinger, Inc.                                       |
  |  All Rights Reserved.                                              |
  |                                                                    |
  |  The following have contributed to Jaguar (listed alphabetically): |
  |  Mike Beachy, Art Bochevarov, Dale Braden, Yixiang Cao,            |
  |  Alan Chien, Chris Cortis, Rich Friesner, Bill Goddard,            |
  |  Hod Greeley, Tom Hughes, Leif Jacobson, Jean-Marc Langlois,       |
  |  Daniel Levine, Daniel Mainz, Rob Murphy, Dean Philipp,            |
  |  Tom Pollard, Murco Ringnalda, Mark Watson, Haoyu Yu.              |
  |                                                                    |
  |  Use of this program should be acknowledged in publications as:    |
  |                                                                    |
  |  Jaguar, version 10.6, Schrodinger, Inc., New York, NY, 2019.      |
  |                                                                    |
  |  A. D. Bochevarov, E. Harder, T. F. Hughes, J. R. Greenwood,       |
  |  D. A. Braden, D. M. Philipp, D. Rinaldo, M. D. Halls,             |
  |  J. Zhang, R. A. Friesner, "Jaguar: A High-Performance Quantum     |
  |  Chemistry Software Program with Strengths in Life and Materials   |
  |  Sciences", Int. J. Quantum Chem., 2013, 113(18), 2110-2142.       |
  +--------------------------------------------------------------------+
  
  start of program pre
  
  Job name: 5RR-Me-DuPHOSpro-SfromJCTCSI_isomer4
  Executables used: /opt/scp/software/schrodinger/2019-4/jaguar-v10.6/bin/Linux-x86_64
  Temporary files : /scratch/kzdq760/5RR-Me-DuPHOSpro-SfromJCTCSI_isomer4#seskscpn324-0-652fb16d
  Maestro file (input):  5RR-Me-DuPHOSpro-SfromJCTCSI_isomer4.mae
  Maestro file (output): 5RR-Me-DuPHOSpro-SfromJCTCSI_isomer4.01.mae
  
 Contents of input file: &gen section only
 ----------------Contents start----------------
&gen
isymm=0
basis=LACVP**
gdftgrad=-13
gdftmed=-13
icanorb=1
molchg=1
gdftfine=-13
dftname=B3LYP
eunit=2
ifreq=1
ncanorb=577
iacc=1
&
 -----------------Contents end-----------------
 
  basis set:             lacvp**                         
  net molecular charge:    1
  multiplicity:            1
  
  keygrid settings 
    wispc.....   7.500E-01
    ldens.....   0
    denspc....   7.500E-01
  
   grid     daf set  nls  grid set  Q type
  ------    -------  ---  --------  ------
  coarse       1      1       1        1
  medium       2      2       2        1
  fine         3      2       3        0
  ultrafine    4      2       4        1
  charge       0      1       0        1
  gradient     5      2       4        1
  density      0      1       0        0
  DFT-fine     0      1     -13        0
  DFT-med.     0      1     -13        0
  DFT-grad     0      1     -13        0
  DFT-der2     0      1      -8        0
  DFT-cphf     0      1      -9        0
  LMP2-enrg    4      2       4        1
  LMP2-grad    5      2       2        1
  DFT-cphf2    0      1     -15        0
  PBF-dens     0      1       0        0
  plotting     0      1       0        0
  Rel-grad     0      1     -17        0
  
  idftgrdm  100
  ndftgrdm   50    0    0
  idftgrdf  111
  ndftgrdf   85    0    0
  idftgrdg  111
  ndftgrdg   80    3    0
  idftgrdu  433
  ndftgrdu  105    0    0
  idftgrdd  433
  ndftgrdd  105    0    0
  idftgrdc  433
  ndftgrdc   26    0    0
  idftgrdp  433
  ndftgrdp   18    0    0
  
  Using up to   4 threads per process
  
  This run will use ECP on 1 atom
  number of basis functions....          578
  
 Input geometry:
                                   angstroms
  atom               x                 y                 z
  Rh1           0.0000000000      0.0000000000      0.0000000000 
  O2            0.0000000000      0.0000000000      2.2259000000 
  C3            1.1232300000      0.0000000000      2.7629500000 
  N4            2.2634200000      0.0955700000      2.0659300000 
  C5            2.2405000000      0.3497400000      0.6452400000 
  C6            1.6798800000      1.5776100000      0.2035700000 
  C7            3.1738700000     -0.4178000000     -0.1096700000 
  N8            3.9625800000     -1.0598100000     -0.6796900000 
  H9            1.5058500000      2.3399900000      0.9567400000 
  H10           1.9548900000      1.9501400000     -0.7752100000 
  H11           3.1525400000      0.0702600000      2.5529900000 
  H12           1.2264100000     -0.0836100000      3.8507400000 
  P13          -0.4589400000     -0.0203100000     -2.2521800000 
  P14          -0.3485600000     -2.3619600000     -0.0536500000 
  C15          -1.0662300000     -1.7059400000     -2.6851900000 
  C16          -1.0204200000     -2.7359600000     -1.7248600000 
  H17          -1.5560400000      0.0982700000     -0.0475800000 
  H18          -0.0120900000      1.6261900000     -0.0439100000 
  C19          -1.7357400000      1.2747500000     -2.7490000000 
  C20           0.7440400000      0.4295300000     -3.6471700000 
  C21          -1.5366900000     -3.1475100000      1.1828400000 
  C22           1.0804300000     -3.5431900000      0.3232400000 
  H23          -1.5486300000      2.0686500000     -2.0157500000 
  H24           1.7512700000     -2.9336200000      0.9418600000 
  H25          -2.1376500000     -3.8433000000      0.5835200000 
  H26           0.4968700000     -0.3162000000     -4.4137400000 
  C27          -1.4821000000     -4.0161800000     -2.0700500000 
  H28          -1.4485400000     -4.8232100000     -1.3445800000 
  C29          -1.5701300000     -1.9802200000     -3.9672300000 
  H30          -1.6154500000     -1.1986400000     -4.7192200000 
  C31          -1.9847000000     -4.2745900000     -3.3431800000 
  H32          -2.3386900000     -5.2701000000     -3.5932800000 
  C33          -2.0303400000     -3.2538500000     -4.2932400000 
  H34          -2.4244600000     -3.4478100000     -5.2861800000 
  C35           0.4587700000     -4.6377400000      1.2192700000 
  H36           0.0046000000     -5.4160100000      0.5916000000 
  H37           1.2366500000     -5.1291000000      1.8140600000 
  C38          -0.6153500000     -3.9827800000      2.0989700000 
  H39          -0.1450600000     -3.3280400000      2.8450700000 
  H40          -1.2021700000     -4.7234400000      2.6527400000 
  C41           0.2492600000      1.8029800000     -4.1482500000 
  H42           0.6261200000      2.5984000000     -3.4909500000 
  H43           0.6497800000      2.0032500000     -5.1478800000 
  C44          -1.2858100000      1.7898000000     -4.1319800000 
  H45          -1.7057900000      2.7836800000     -4.3197400000 
  H46          -1.6660800000      1.1336500000     -4.9257500000 
  C47          -3.2023600000      0.8567900000     -2.6389200000 
  H48          -3.4550200000      0.5371600000     -1.6230400000 
  H49          -3.8448300000      1.7082100000     -2.8853600000 
  H50          -3.4496900000      0.0414100000     -3.3242400000 
  C51           2.2444700000      0.3432800000     -3.3776100000 
  H52           2.5490700000     -0.6365800000     -3.0047100000 
  H53           2.7901800000      0.5269600000     -4.3092300000 
  H54           2.5791600000      1.0960600000     -2.6585000000 
  C55          -2.4803500000     -2.1889100000      1.9128100000 
  H56          -3.1385400000     -1.6617500000      1.2158200000 
  H57          -3.1158900000     -2.7544800000      2.6030700000 
  H58          -1.9277100000     -1.4419000000      2.4868900000 
  C59           1.8752300000     -4.0590200000     -0.8794600000 
  H60           2.3543700000     -3.2450100000     -1.4292900000 
  H61           2.6707500000     -4.7259100000     -0.5301600000 
  H62           1.2455800000     -4.6255500000     -1.5715300000 
   
  principal moments of inertia:
        amu*angstrom^2:     2813.76690     3278.31699     4272.46603
                g*cm^2: 4.67236929E-37 5.44377276E-37 7.09459588E-37
   
  rotational constants:
               cm^(-1):      0.00599112      0.00514216      0.00394564
                   GHz:      0.17960941      0.15415807      0.11828743
   
  Molecular weight:     507.12 amu
   
  Stoichiometry: RhC22P2N2H34O
  Molecular Point Group: C1      
  Point Group used: C1 (symmetry turned off)
  
  nuclear repulsion energy.......    3644.396544376 hartrees
  
  Detected an organometallic with only one TM atom. 
  
  Oxidation state on metal       1 is     3
  Formal multiplet on metal      1 is     1
  Formal charge on ligand        4 is    -1
  Formal multiplet on ligand     4 is     1
  Formal charge on ligand        5 is    -1
  Formal multiplet on ligand     5 is     1
  
 
  Will use High-Quality Initial guess for organometallics
       including d-d repulsion (iguess=30)
 
 Non-default options chosen:
   SCF calculation type: DFT(b3lyp)                  
   DFT=Becke_3_Parameter/HF+Slater+Becke88+VWN+LYP (B3LYP)
   Vibrational frequencies and related properties will be computed
      from analytic second derivatives
   IR intensities will be computed
   Thermochemical properties will be computed
   Thermochemical data will be printed in Joules
   Molecular symmetry not used
   Highest accuracy cutoffs used in SCF
  
 Temporary integer options set:
     21= -1  73=  2
  
   Fixing number of canonical orbitals to remain constant.
   Number of canonical orbitals to use:   577
  
  Peak memory usage:   1467 Mb
  
  end of program pre
   
 Time(pre)  user:        2.1  user+sys:        2.1  wallclock:        1.3
  
  start of program onee
  
  smallest eigenvalue of S:    4.755E-04
  Set cut 20/10 to   7.834593153595425E-004
  number of canonical orbitals.....          577
  Peak memory usage:   1510 Mb
  
  end of program onee
   
 Time(onee)  user:        2.7  user+sys:        2.7  wallclock:        0.9
  
  start of program hfig
  
  initial wavefunction generated automatically from atomic wavefunctions
  Only one state below 0.010000
  Skip d-d repulsion considerations 
 
  Irreducible     Total no   No of occupied orbitals 
  representation  orbitals   Shell_1  Shell_2    ...
  No Symm          577        117
  ------------------------
  Orbital occupation/shell    1.000
 
  Peak memory usage:   1444 Mb
  
  end of program hfig
   
 Time(hfig)  user:        1.2  user+sys:        1.2  wallclock:        0.7
  
  start of program probe
  
  Peak memory usage:   1428 Mb
  
  end of program probe
   
 Time(probe)  user:        1.1  user+sys:        1.1  wallclock:        0.4
  
  start of program grid
  
   grid     grid set  grid #  grid sym
  ------    --------  ------  --------
  coarse        0        0        1
  medium        2        1        1
  fine          0        0        1
  ultrafine     4        2        1
  charge        0        0        1
  gradient      4        2        1
  density       0        0        1
  DFT-fine    -13        3        1
  DFT-med.    -13        3        1
  DFT-grad    -13        3        1
  DFT-der2     -8        4        1
  DFT-cphf     -9        5        1
  LMP2-enrg     4        2        1
  LMP2-grad     2        1        1
  DFT-cphf2   -15        6        1
  PBF-dens      0        0        1
  plotting      0        0        1
  Rel-grad    -17        0        1
  
  number of gridpoints: 
     atom       Rh1       O2       C3       N4       C5       C6       C7
  grid # 1      300      116       83      102       92       82      102
  grid # 2      233      472      298      336      357      267      385
  grid # 3    35544    23820    15816    16030    15816    15816    15816
  grid # 4    32864    23252    13988    14170    13988    13988    13988
  grid # 5     1144      774      748      756      748      748      748
  grid # 6     2168      416      394      406      394      394      394
   
  number of gridpoints: 
     atom        N8       H9      H10      H11      H12      P13      P14
  grid # 1      117      112      108      116      117      609      611
  grid # 2      491      453      433      449      466      422      437
  grid # 3    16030    17074    17074    17074    17074    24032    24032
  grid # 4    14170    15058    15058    15058    15058    23016    23016
  grid # 5      756      786      786      786      786      722      722
  grid # 6      406      420      420      420      420      370      370
   
  number of gridpoints: 
     atom       C15      C16      H17      H18      C19      C20      C21
  grid # 1       93       93      100      104       80       80       80
  grid # 2      388      387      450      444      329      329      328
  grid # 3    15816    15816    17074    17074    15816    15816    15816
  grid # 4    13988    13988    15058    15058    13988    13988    13988
  grid # 5      748      748      786      786      748      748      748
  grid # 6      394      394      420      420      394      394      394
   
  number of gridpoints: 
     atom       C22      H23      H24      H25      H26      C27      H28
  grid # 1       79      102      103      104      102       93      107
  grid # 2      326      437      439      433      433      326      436
  grid # 3    15816    17074    17074    17074    17074    15816    17074
  grid # 4    13988    15058    15058    15058    15058    13988    15058
  grid # 5      748      786      786      786      786      748      786
  grid # 6      394      420      420      420      420      394      420
   
  number of gridpoints: 
     atom       C29      H30      C31      H32      C33      H34      C35
  grid # 1       93      107       96      118       96      118       92
  grid # 2      324      432      324      466      324      466      279
  grid # 3    15816    17074    15816    17074    15816    17074    15816
  grid # 4    13988    15058    13988    15058    13988    15058    13988
  grid # 5      748      786      748      786      748      786      748
  grid # 6      394      420      394      420      394      420      394
   
  number of gridpoints: 
     atom       H36      H37      C38      H39      H40      C41      H42
  grid # 1      107      112       91      108      112       91      109
  grid # 2      440      451      279      444      450      279      444
  grid # 3    17074    17074    15816    17074    17074    15816    17074
  grid # 4    15058    15058    13988    15058    15058    13988    15058
  grid # 5      786      786      748      786      786      748      786
  grid # 6      420      420      394      420      420      394      420
   
  number of gridpoints: 
     atom       H43      C44      H45      H46      C47      H48      H49
  grid # 1      112       92      112      108       79      105      110
  grid # 2      450      277      451      439      239      446      458
  grid # 3    17074    15816    17074    17074    15816    17074    17074
  grid # 4    15058    13988    15058    15058    13988    15058    15058
  grid # 5      786      748      786      786      748      786      786
  grid # 6      420      394      420      420      394      420      420
   
  number of gridpoints: 
     atom       H50      C51      H52      H53      H54      C55      H56
  grid # 1      107       80      106      108      102       81      107
  grid # 2      445      239      441      457      432      236      447
  grid # 3    17074    15816    17074    17074    17074    15816    17074
  grid # 4    15058    13988    15058    15058    15058    13988    15058
  grid # 5      786      748      786      786      786      748      786
  grid # 6      420      394      420      420      420      394      420
   
  number of gridpoints: 
     atom       H57      H58      C59      H60      H61      H62    total
  grid # 1      109      105       81      106      109      105     7461
  grid # 2      455      436      239      438      456      445    24312
  grid # 3    17074    17074    15816    17074    17074    17074  1067956
  grid # 4    15058    15058    13988    15058    15058    15058   950196
  grid # 5      786      786      748      786      786      786    48054
  grid # 6      420      420      394      420      420      420    27084
   
  Peak memory usage:   1453 Mb
  
  end of program grid
   
 Time(grid)  user:      105.9  user+sys:      105.9  wallclock:       27.5
  
  start of program rwr
  
  Peak memory usage:   1427 Mb
  
  end of program rwr
   
 Time(rwr)  user:       15.1  user+sys:       15.1  wallclock:        6.3
  
  start of program scf
  
 number of electrons..........        234
 number of alpha electrons....        117
 number of beta electrons.....        117
 number of orbitals, total....        577
 number of doubly-occ'd orbs..        117
 number of open shell orbs....          0
 number of occupied orbitals..        117
 number of virtual orbitals...        460
 number of hamiltonians.......          1
 number of shells.............          1
 SCF type: DFT=Becke_3_Parameter/HF+Slater+Becke88+VWN+LYP (B3LYP)
 Energy computed with NOPS off.
 Convergence Criterion:
    Energy (econv):       1.00E-05
    RMS density (dconv):  5.00E-06
  
       i  u  d  i  g                   
       t  p  i  c  r                                 RMS    maximum
       e  d  i  u  i                       energy  density   DIIS  
       r  t  s  t  d       total energy    change  change    error 
  
etot    1  N  N  1  U   -1830.61818748445           3.2E-03  9.7E-02
etot    2  N  Y  1  U   -1834.31944043173  3.7E+00  3.2E-03  6.4E-02
etot    3  N  Y  1  U   -1834.57687075710  2.6E-01  1.8E-03  1.2E-01
etot    4  N  Y  1  U   -1835.46790832643  8.9E-01  1.1E-03  2.5E-02
etot    5  N  Y  1  U   -1835.57992806455  1.1E-01  5.8E-04  2.0E-02
etot    6  N  Y  1  U   -1835.62627460825  4.6E-02  1.7E-04  6.4E-03
etot    7  N  Y  1  U   -1835.63254000699  6.3E-03  5.2E-05  3.3E-03
etot    8  N  Y  1  U   -1835.63357692796  1.0E-03  1.9E-05  1.1E-03
etot    9  N  Y  1  U   -1835.63364873116  7.2E-05  6.5E-06  1.6E-04
etot   10  N  Y  1  U   -1835.63365711250  8.4E-06  3.3E-06  8.9E-05
etot   11  N  N  1  U   -1835.63365865972  1.5E-06  0.0E+00  0.0E+00
  
  
 Energy components, in hartrees:
   (A)  Nuclear repulsion............    3644.39654437581
   (E)  Total one-electron terms.....   -9780.13492472258
   (I)  Total two-electron terms.....    4300.10472168705
   (J)    Coulomb....................    4512.40051029389
   (K)    Exchange+Correlation.......    -212.29578860684
   (L)  Electronic energy............   -5480.03020303553  (E+I)
   (N)  Total energy.................   -1835.63365865972  (A+L)
   (O)  Gas phase energy.............   -1835.63365865972
  
 SCFE: SCF energy: DFT(b3lyp)     -1835.63365865972 hartrees   iterations:  11
  
 
 HOMO energy:    -0.33942
 LUMO energy:    -0.17301
 
  Orbital energies (hartrees): 
   -77.23045   -77.21058   -19.28847   -14.51897   -14.43864   -10.43303
   -10.38341   -10.35768   -10.33309   -10.32391   -10.32154   -10.31414
   -10.31376   -10.31201   -10.30936   -10.30764   -10.30703   -10.30597
   -10.30521   -10.29390   -10.29248   -10.28812   -10.28788   -10.28048
   -10.27894   -10.27205   -10.26879    -6.70759    -6.68976    -4.86924
    -4.86846    -4.86760    -4.85159    -4.85059    -4.84905    -3.25985
    -2.06769    -2.05999    -2.05048    -1.19417    -1.08385    -1.00553
    -0.98126    -0.94665    -0.93937    -0.92126    -0.87963    -0.87860
    -0.87248    -0.87129    -0.82693    -0.81929    -0.80791    -0.78102
    -0.76822    -0.74946    -0.74215    -0.74041    -0.72812    -0.71767
    -0.71118    -0.68288    -0.67590    -0.66357    -0.64872    -0.64040
    -0.61442    -0.60863    -0.58638    -0.58259    -0.57923    -0.57639
    -0.57345    -0.56739    -0.56393    -0.55767    -0.54689    -0.54300
    -0.53722    -0.53578    -0.53218    -0.52072    -0.51790    -0.51712
    -0.51091    -0.50793    -0.50311    -0.50094    -0.48857    -0.48189
    -0.47781    -0.47594    -0.47206    -0.46776    -0.46246    -0.46067
    -0.45661    -0.45549    -0.44714    -0.44400    -0.44188    -0.43793
    -0.43544    -0.43353    -0.43168    -0.42968    -0.42748    -0.42565
    -0.42274    -0.41257    -0.40431    -0.39817    -0.38700    -0.37936
    -0.37148    -0.36976    -0.33942    -0.17301    -0.16246    -0.14825
    -0.13767    -0.13071    -0.11047    -0.08649    -0.08034    -0.07242
    -0.05937
 
  Peak memory usage:   2077 Mb
  
  end of program scf
   
 Time(scf)  user:      463.6  user+sys:      463.6  wallclock:      128.8
  
  start of program cutabab2
  
  Peak memory usage:   1822 Mb
  
  end of program cutabab2
   
 Time(cutabab2)  user:        1.9  user+sys:        1.9  wallclock:        0.9
  
  start of program der2a
  
  Peak memory usage:   1810 Mb
  
  end of program der2a
   
 Time(der2a)  user:       56.1  user+sys:       56.1  wallclock:       15.0
  
  start of program der2b
  
  Peak memory usage:   2227 Mb
  
  end of program der2b
   
 Time(der2b)  user:     3168.9  user+sys:     3168.9  wallclock:      796.8
  
  start of program der2nda
  
 
  Peak memory usage:    977 Mb
  
  end of program der2nda
   
 Time(der2nda)  user:       16.6  user+sys:       16.6  wallclock:       16.8
  
  start of program der2ndb
  
  Peak memory usage:   1882 Mb
  
  end of program der2ndb
   
 Time(der2ndb)  user:     4052.3  user+sys:     4052.3  wallclock:     1036.5
  
  start of program rwr
  
  Peak memory usage:   1427 Mb
  
  end of program rwr
   
 Time(rwr)  user:       14.8  user+sys:       14.8  wallclock:        6.4
  
  start of program cphfa
  
      13  vectors produced in CPHF
  
     v    i  j  k  i  g
     e    t  c  c  c  r
     c    e  o  o  u  i
     t    r  r  r  t  d       RMS  
  
     1    1  5  2  6  M     4.7E-03
     1    2  5  2  6  M     4.1E-04
     1    3  0  0  6  M     2.2E-04
     1    4  0  0  6  M     8.7E-05
     1    5  0  0  6  M     3.5E-05
  
     v    i  j  k  i  g
     e    t  c  c  c  r
     c    e  o  o  u  i
     t    r  r  r  t  d       RMS  
  
     2    1  5  2  6  M     4.5E-03
     2    2  5  2  6  M     2.8E-04
     2    3  0  0  6  M     1.3E-04
     2    4  0  0  6  M     6.6E-05
     2    5  0  0  6  M     2.8E-05
  
     v    i  j  k  i  g
     e    t  c  c  c  r
     c    e  o  o  u  i
     t    r  r  r  t  d       RMS  
  
     3    1  5  2  6  M     4.6E-03
     3    2  5  2  6  M     2.5E-04
     3    3  0  0  6  M     1.3E-04
     3    4  0  0  6  M     7.2E-05
     3    5  0  0  6  M     3.1E-05
  
     v    i  j  k  i  g
     e    t  c  c  c  r
     c    e  o  o  u  i
     t    r  r  r  t  d       RMS  
  
     4    1  5  2  6  M     4.3E-03
     4    2  5  2  6  M     2.8E-04
     4    3  0  0  6  M     1.3E-04
     4    4  0  0  6  M     6.6E-05
     4    5  0  0  6  M     3.0E-05
  
     v    i  j  k  i  g
     e    t  c  c  c  r
     c    e  o  o  u  i
     t    r  r  r  t  d       RMS  
  
     5    1  5  2  6  M     4.6E-03
     5    2  5  2  6  M     4.1E-04
     5    3  0  0  6  M     1.6E-04
     5    4  0  0  6  M     8.8E-05
     5    5  0  0  6  M     2.9E-05
  
     v    i  j  k  i  g
     e    t  c  c  c  r
     c    e  o  o  u  i
     t    r  r  r  t  d       RMS  
  
     6    1  5  2  6  M     4.7E-03
     6    2  5  2  6  M     3.9E-04
     6    3  0  0  6  M     1.7E-04
     6    4  0  0  6  M     9.8E-05
     6    5  0  0  6  M     4.0E-05
  
     v    i  j  k  i  g
     e    t  c  c  c  r
     c    e  o  o  u  i
     t    r  r  r  t  d       RMS  
  
     7    1  5  2  6  M     4.6E-03
     7    2  5  2  6  M     3.5E-04
     7    3  0  0  6  M     2.0E-04
     7    4  0  0  6  M     9.5E-05
     7    5  0  0  6  M     4.1E-05
  
     v    i  j  k  i  g
     e    t  c  c  c  r
     c    e  o  o  u  i
     t    r  r  r  t  d       RMS  
  
     8    1  5  2  6  M     4.6E-03
     8    2  5  2  6  M     3.0E-04
     8    3  0  0  6  M     1.3E-04
     8    4  0  0  6  M     5.5E-05
     8    5  0  0  6  M     3.5E-05
  
     v    i  j  k  i  g
     e    t  c  c  c  r
     c    e  o  o  u  i
     t    r  r  r  t  d       RMS  
  
     9    1  5  2  6  M     4.5E-03
     9    2  5  2  6  M     2.6E-04
     9    3  0  0  6  M     1.3E-04
     9    4  0  0  6  M     5.3E-05
     9    5  0  0  6  M     2.9E-05
  
     v    i  j  k  i  g
     e    t  c  c  c  r
     c    e  o  o  u  i
     t    r  r  r  t  d       RMS  
  
    10    1  5  2  6  M     4.5E-03
    10    2  5  2  6  M     2.0E-04
    10    3  0  0  6  M     1.0E-04
    10    4  0  0  6  M     4.4E-05
  
     v    i  j  k  i  g
     e    t  c  c  c  r
     c    e  o  o  u  i
     t    r  r  r  t  d       RMS  
  
    11    1  5  2  6  M     4.5E-03
    11    2  5  2  6  M     2.5E-04
    11    3  0  0  6  M     1.2E-04
    11    4  0  0  6  M     4.4E-05
  
     v    i  j  k  i  g
     e    t  c  c  c  r
     c    e  o  o  u  i
     t    r  r  r  t  d       RMS  
  
    12    1  5  2  6  M     4.6E-03
    12    2  5  2  6  M     3.0E-04
    12    3  0  0  6  M     1.7E-04
    12    4  0  0  6  M     9.6E-05
    12    5  0  0  6  M     3.5E-05
  
     v    i  j  k  i  g
     e    t  c  c  c  r
     c    e  o  o  u  i
     t    r  r  r  t  d       RMS  
  
    13    1  5  2  6  M     4.5E-03
    13    2  5  2  6  M     1.9E-04
    13    3  0  0  6  M     1.3E-04
    13    4  0  0  6  M     5.2E-05
    13    5  0  0  6  M     2.5E-05
  
  
  Atomic Polar Tensors (au): Total
  =========================
  
  APT for atom Rh1     
  --------------------------------------
       -0.6096       0.0900      -0.0076
        0.3037      -0.4740       0.1874
        0.0021       0.1032      -0.1706
  --------------------------------------
  
  APT for atom O2      
  --------------------------------------
       -0.8648      -0.0753      -0.2962
       -0.0440      -0.1578      -0.0677
       -0.3973      -0.0164      -1.0254
  --------------------------------------
  
  APT for atom C3      
  --------------------------------------
        1.3542       0.0760       0.2573
        0.1102       0.2075       0.0093
       -0.0036       0.0280       0.6446
  --------------------------------------
  
  APT for atom N4      
  --------------------------------------
       -0.6846       0.0184       0.0068
        0.0361      -0.3308      -0.0308
        0.2845       0.0112      -0.3664
  --------------------------------------
  
  APT for atom C5      
  --------------------------------------
       -0.3814      -0.2600      -0.1065
        0.3789       0.3451       0.0644
       -0.0380      -0.0633       0.4640
  --------------------------------------
  
  APT for atom C6      
  --------------------------------------
        0.7644       0.2941       0.2592
       -0.1801       0.0626      -0.0097
        0.2270       0.0023       0.0839
  --------------------------------------
  
  APT for atom C7      
  --------------------------------------
        0.5100      -0.0019      -0.0155
       -0.2785       0.0267       0.0044
       -0.3164       0.0133      -0.0641
  --------------------------------------
  
  APT for atom N8      
  --------------------------------------
       -0.4854      -0.0403      -0.0272
        0.1292      -0.2379       0.0269
        0.1231       0.0280      -0.2295
  --------------------------------------
  
  APT for atom H9      
  --------------------------------------
       -0.0324      -0.0978      -0.0226
       -0.0298       0.0501      -0.0197
       -0.0069      -0.0301       0.0270
  --------------------------------------
  
  APT for atom H10     
  --------------------------------------
        0.0421      -0.0381      -0.0116
       -0.0366       0.0556       0.0001
        0.0077       0.0085       0.0286
  --------------------------------------
  
  APT for atom H11     
  --------------------------------------
        0.2741       0.0159       0.0668
       -0.0355       0.2861       0.0315
        0.0164       0.0296       0.1425
  --------------------------------------
  
  APT for atom H12     
  --------------------------------------
        0.0484      -0.0030      -0.1101
       -0.0128       0.0878       0.0254
       -0.0436      -0.0040      -0.0662
  --------------------------------------
  
  APT for atom P13     
  --------------------------------------
        0.7460       0.0674       0.2691
        0.1279       1.1649      -0.0161
        0.2894      -0.0495       1.1808
  --------------------------------------
  
  APT for atom P14     
  --------------------------------------
        0.8671       0.1639       0.2306
        0.1863       0.9634      -0.0288
        0.2581       0.0899       1.0197
  --------------------------------------
  
  APT for atom C15     
  --------------------------------------
       -0.2153       0.0120      -0.0790
       -0.0265      -0.1878      -0.0563
       -0.0519       0.0648      -0.3766
  --------------------------------------
  
  APT for atom C16     
  --------------------------------------
       -0.1861      -0.0477       0.0440
       -0.0732      -0.3585       0.0538
       -0.0153      -0.0748      -0.2006
  --------------------------------------
  
  APT for atom H17     
  --------------------------------------
       -0.3123      -0.0347      -0.0758
        0.0061       0.1350      -0.0010
        0.0475      -0.0199       0.1135
  --------------------------------------
  
  APT for atom H18     
  --------------------------------------
       -0.0562       0.0319      -0.0138
       -0.2284      -0.2922      -0.0556
        0.0252      -0.0047       0.1383
  --------------------------------------
  
  APT for atom C19     
  --------------------------------------
       -0.0404      -0.1473       0.0997
       -0.1340       0.0019      -0.0948
       -0.0696      -0.0638      -0.1828
  --------------------------------------
  
  APT for atom C20     
  --------------------------------------
       -0.0513       0.1357      -0.2761
       -0.0243      -0.1270      -0.1394
       -0.1095      -0.0830      -0.0751
  --------------------------------------
  
  APT for atom C21     
  --------------------------------------
       -0.0303       0.0731      -0.1762
        0.0077      -0.1539      -0.0168
       -0.1416      -0.1712       0.0388
  --------------------------------------
  
  APT for atom C22     
  --------------------------------------
       -0.0658      -0.2780       0.0623
       -0.1351      -0.1364      -0.1082
        0.0233      -0.0556      -0.1253
  --------------------------------------
  
  APT for atom H23     
  --------------------------------------
        0.0073      -0.0054      -0.0243
       -0.0562      -0.0498      -0.0646
       -0.0087      -0.0033      -0.0206
  --------------------------------------
  
  APT for atom H24     
  --------------------------------------
       -0.0421      -0.0348      -0.0542
        0.0070      -0.0272       0.0087
       -0.0472      -0.0701      -0.0524
  --------------------------------------
  
  APT for atom H25     
  --------------------------------------
       -0.0284      -0.0432      -0.0277
       -0.0639      -0.0757      -0.0488
        0.0123       0.0239      -0.0387
  --------------------------------------
  
  APT for atom H26     
  --------------------------------------
        0.0112      -0.0209       0.0201
       -0.0131      -0.0320       0.0358
       -0.0363      -0.0539      -0.0977
  --------------------------------------
  
  APT for atom C27     
  --------------------------------------
       -0.0730      -0.0606      -0.0226
        0.0139      -0.0156      -0.0427
       -0.0797      -0.1968      -0.0783
  --------------------------------------
  
  APT for atom H28     
  --------------------------------------
        0.0961       0.0042      -0.0027
        0.0068       0.0181       0.0754
       -0.0013       0.0804       0.0157
  --------------------------------------
  
  APT for atom C29     
  --------------------------------------
       -0.0782      -0.0275      -0.0561
       -0.0825      -0.0507      -0.2031
       -0.0022      -0.0172      -0.0241
  --------------------------------------
  
  APT for atom H30     
  --------------------------------------
        0.0924      -0.0020       0.0034
        0.0026       0.0090       0.0792
       -0.0057       0.0796       0.0233
  --------------------------------------
  
  APT for atom C31     
  --------------------------------------
       -0.0381       0.0676       0.0173
        0.0662       0.1064       0.0624
        0.0210       0.0623      -0.0546
  --------------------------------------
  
  APT for atom H32     
  --------------------------------------
        0.0912      -0.0415      -0.0214
       -0.0474      -0.0179      -0.0311
       -0.0256      -0.0212       0.0619
  --------------------------------------
  
  APT for atom C33     
  --------------------------------------
       -0.0386       0.0184       0.0692
        0.0147      -0.0689       0.0562
        0.0676       0.0558       0.1001
  --------------------------------------
  
  APT for atom H34     
  --------------------------------------
        0.0875      -0.0214      -0.0480
       -0.0181       0.0651      -0.0167
       -0.0516      -0.0238      -0.0178
  --------------------------------------
  
  APT for atom C35     
  --------------------------------------
        0.0592       0.2269      -0.0389
        0.0057       0.0658      -0.0135
        0.0446       0.0422       0.0770
  --------------------------------------
  
  APT for atom H36     
  --------------------------------------
        0.0020      -0.0805      -0.0191
       -0.0325      -0.0232      -0.0567
       -0.0249      -0.0974      -0.0347
  --------------------------------------
  
  APT for atom H37     
  --------------------------------------
       -0.0399       0.0627      -0.0382
        0.0453      -0.0482       0.0609
       -0.0363       0.0929      -0.0132
  --------------------------------------
  
  APT for atom C38     
  --------------------------------------
        0.0418      -0.0494       0.1876
        0.0362       0.0693       0.0599
        0.0230      -0.0273       0.0588
  --------------------------------------
  
  APT for atom H39     
  --------------------------------------
       -0.0075      -0.0182      -0.0699
       -0.0265      -0.0281      -0.1107
       -0.0337      -0.0514      -0.0282
  --------------------------------------
  
  APT for atom H40     
  --------------------------------------
       -0.0009      -0.0323       0.0445
       -0.0422      -0.0309       0.0991
        0.0507       0.0827      -0.0402
  --------------------------------------
  
  APT for atom C41     
  --------------------------------------
        0.0031      -0.0752       0.0598
        0.0254       0.1612      -0.0612
        0.0538       0.1424       0.0127
  --------------------------------------
  
  APT for atom H42     
  --------------------------------------
       -0.0067      -0.0276      -0.0377
       -0.0272      -0.0375      -0.0404
       -0.0641      -0.1115      -0.0114
  --------------------------------------
  
  APT for atom H43     
  --------------------------------------
        0.0089      -0.0041       0.0499
       -0.0101      -0.0019       0.0691
        0.0650       0.0716      -0.0754
  --------------------------------------
  
  APT for atom C44     
  --------------------------------------
       -0.0331       0.0810      -0.0695
        0.0596       0.0368       0.1502
        0.0291      -0.0307       0.1333
  --------------------------------------
  
  APT for atom H45     
  --------------------------------------
        0.0099       0.0521      -0.0099
        0.0743      -0.0808       0.0741
       -0.0238       0.0572      -0.0011
  --------------------------------------
  
  APT for atom H46     
  --------------------------------------
        0.0016      -0.0452      -0.0168
       -0.0637      -0.0144      -0.1113
       -0.0340      -0.0551      -0.0330
  --------------------------------------
  
  APT for atom C47     
  --------------------------------------
        0.0298      -0.0213      -0.0004
        0.1098       0.0343       0.0480
        0.0047       0.0678       0.0204
  --------------------------------------
  
  APT for atom H48     
  --------------------------------------
        0.0688      -0.0365       0.0289
       -0.0456       0.0518       0.0485
        0.0486       0.0423      -0.0764
  --------------------------------------
  
  APT for atom H49     
  --------------------------------------
       -0.0526       0.0737      -0.0373
        0.0811      -0.0438       0.0359
       -0.0511       0.0333       0.0697
  --------------------------------------
  
  APT for atom H50     
  --------------------------------------
        0.0391      -0.0242       0.0215
       -0.0602      -0.0067      -0.0750
       -0.0335      -0.0874      -0.0113
  --------------------------------------
  
  APT for atom C51     
  --------------------------------------
        0.0610       0.0318      -0.0385
        0.0452      -0.0032       0.0661
        0.0872       0.0590       0.0574
  --------------------------------------
  
  APT for atom H52     
  --------------------------------------
        0.0175       0.0158      -0.0065
        0.0240      -0.0416       0.0528
       -0.0508       0.0313       0.0890
  --------------------------------------
  
  APT for atom H53     
  --------------------------------------
       -0.0265      -0.0303       0.0571
       -0.0367       0.0817       0.0296
        0.0778       0.0365      -0.0687
  --------------------------------------
  
  APT for atom H54     
  --------------------------------------
        0.0124       0.0084      -0.0124
       -0.0283      -0.0233      -0.1165
       -0.0621      -0.1022      -0.0089
  --------------------------------------
  
  APT for atom C55     
  --------------------------------------
        0.0290       0.0623      -0.0045
       -0.0513       0.0381       0.0736
        0.0106      -0.0077       0.0197
  --------------------------------------
  
  APT for atom H56     
  --------------------------------------
        0.0268       0.0693      -0.0522
        0.0856       0.0050       0.0176
       -0.0718       0.0502      -0.0102
  --------------------------------------
  
  APT for atom H57     
  --------------------------------------
       -0.0111      -0.0369       0.1025
       -0.0642       0.0002       0.0570
        0.1115       0.0423      -0.0352
  --------------------------------------
  
  APT for atom H58     
  --------------------------------------
        0.0316      -0.0286      -0.0614
        0.0184       0.0336      -0.0565
       -0.0463      -0.0546       0.0403
  --------------------------------------
  
  APT for atom C59     
  --------------------------------------
        0.0302       0.0306       0.0725
       -0.0077      -0.0066       0.0412
       -0.0124       0.0958       0.0456
  --------------------------------------
  
  APT for atom H60     
  --------------------------------------
        0.0466      -0.0138       0.0415
       -0.0466       0.0027       0.0529
        0.0361       0.0548      -0.0021
  --------------------------------------
  
  APT for atom H61     
  --------------------------------------
       -0.0277       0.1124      -0.0265
        0.0946      -0.0075       0.0069
       -0.0349       0.0118       0.0232
  --------------------------------------
  
  APT for atom H62     
  --------------------------------------
        0.0083      -0.0902      -0.0565
       -0.0398       0.0261      -0.0708
       -0.0164      -0.0473      -0.0126
  --------------------------------------
  
  Peak memory usage:   1961 Mb
  
  end of program cphfa
   
 Time(cphfa)  user:    13444.3  user+sys:    13444.3  wallclock:     5179.9
  
  start of program freq
  
   
  Number of frequencies: 180
  harmonic frequencies in cm**-1, reduced masses in amu,
  force constants in mDyne/A, and
  normal modes in cartesian coordinates:         180
  IR intensities in km/mol
  
  vibration #            1        2        3        4        5        6
                  -------- -------- -------- -------- -------- --------
  frequencies      -660.66    24.04    52.99    54.37    59.38    70.53
  intensities        23.05     0.18     0.47     0.04     0.79     3.73
  reduc. mass         0.77     0.45     1.19     0.67     0.69     1.02
  force const         0.20     0.00     0.00     0.00     0.00     0.00
    Rh1      X    -0.00404 -0.01088  0.00077  0.00840 -0.00424 -0.01056
    Rh1      Y     0.01617 -0.00046 -0.00158  0.00779  0.00665  0.00041
    Rh1      Z    -0.00122 -0.00039  0.00301 -0.00012  0.00013  0.00229
    O2       X     0.00199 -0.02962  0.02424 -0.01216  0.00346  0.00635
    O2       Y     0.00010  0.01632 -0.00140  0.02338  0.04393 -0.05072
    O2       Z     0.00159 -0.00065  0.00165  0.00042  0.00062  0.00260
    C3       X    -0.00341 -0.03505  0.02856 -0.01761  0.00535  0.01258
    C3       Y    -0.00002  0.03182  0.01609  0.00453  0.04374 -0.08574
    C3       Z     0.00026  0.01036 -0.00691  0.01183 -0.00376 -0.00901
    N4       X     0.00360 -0.02903  0.02181 -0.00938  0.00367  0.00561
    N4       Y    -0.00550  0.03541  0.03490 -0.01615  0.01822 -0.07397
    N4       Z     0.00473  0.02069 -0.01470  0.02252 -0.01041 -0.01759
    C5       X     0.03417 -0.01719  0.00925  0.00640 -0.00142 -0.00567
    C5       Y     0.01884  0.01909  0.03317 -0.01083 -0.00790 -0.01604
    C5       Z     0.01069  0.01763 -0.01445  0.02341 -0.01491 -0.00731
    C6       X     0.06274 -0.01978 -0.01855  0.02080  0.01282 -0.01961
    C6       Y    -0.04983  0.01090  0.02089 -0.00507 -0.00712 -0.00357
    C6       Z     0.00584 -0.00112 -0.01230  0.02182 -0.03171  0.04172
    C7       X     0.00434 -0.00622  0.03219  0.00384 -0.02428  0.01854
    C7       Y    -0.01315  0.01429  0.06221 -0.01707 -0.04206  0.04150
    C7       Z    -0.00071  0.03619 -0.01545  0.02683 -0.00837 -0.03624
    N8       X     0.00367  0.00323  0.05605  0.00015 -0.04511  0.04218
    N8       Y    -0.00433  0.00943  0.09296 -0.02173 -0.07374  0.09493
    N8       Z    -0.00325  0.05472 -0.01691  0.02692 -0.00160 -0.06347
    H9       X    -0.21557 -0.02778 -0.02978  0.01583  0.03110 -0.03222
    H9       Y    -0.08645  0.01947  0.01882 -0.00749  0.00762 -0.03605
    H9       Z    -0.03304 -0.01165 -0.01281  0.02316 -0.04235  0.07167
    H10      X    -0.09493 -0.01547 -0.03213  0.03641  0.01030 -0.01792
    H10      Y    -0.06269  0.00009  0.02469 -0.00303 -0.02618  0.03958
    H10      Z    -0.03790 -0.00417 -0.01483  0.02731 -0.03952  0.05843
    H11      X     0.00120 -0.03349  0.02566 -0.01421  0.00560  0.01041
    H11      Y    -0.00532  0.04623  0.04572 -0.02842  0.01924 -0.09800
    H11      Z     0.00784  0.02937 -0.02116  0.03065 -0.01391 -0.02754
    H12      X     0.00012 -0.04495  0.03771 -0.02984  0.00890  0.02282
    H12      Y    -0.00291  0.04352  0.01674  0.00392  0.06499 -0.12897
    H12      Z     0.00015  0.01221 -0.00776  0.01292 -0.00244 -0.01336
    P13      X     0.00191  0.00086 -0.00143  0.02089 -0.00255  0.00989
    P13      Y     0.00117 -0.00559 -0.00697  0.00195 -0.00339 -0.00243
    P13      Z    -0.00108 -0.00244  0.00332 -0.00519  0.00092 -0.00394
    P14      X     0.00773  0.00640 -0.01083 -0.01095 -0.01244 -0.02142
    P14      Y    -0.00868 -0.00438 -0.00340  0.00833  0.00565  0.00884
    P14      Z     0.00114 -0.00457  0.01162  0.00645  0.01044  0.00657
    C15      X     0.00052 -0.02486 -0.00432  0.02174  0.01937  0.01269
    C15      Y    -0.00074  0.00226 -0.00602  0.00036 -0.00887 -0.00533
    C15      Z     0.00116  0.00548  0.00674 -0.00397 -0.00300 -0.00245
    C16      X     0.00061 -0.02142 -0.00263 -0.01747 -0.01582 -0.02836
    C16      Y    -0.00186  0.00161 -0.00512  0.01100  0.00328  0.00542
    C16      Z     0.00119  0.00465  0.00729  0.00874  0.01172  0.01164
    H17      X    -0.00136 -0.01139  0.00005  0.01045 -0.00439 -0.01131
    H17      Y    -0.14645 -0.01065 -0.00867  0.02130  0.01354  0.00564
    H17      Z     0.02924 -0.01225  0.01310 -0.01064  0.00247  0.00245
    H18      X    -0.86220 -0.01907 -0.02639  0.02916  0.01792 -0.02453
    H18      Y    -0.12874 -0.00094 -0.00529  0.00818  0.00794 -0.00053
    H18      Z    -0.07149 -0.00448 -0.00052 -0.00912 -0.01466  0.01352
    C19      X    -0.00094  0.03030  0.00547  0.00030 -0.02195  0.00333
    C19      Y    -0.00009  0.01715 -0.00100 -0.02512 -0.01823 -0.01559
    C19      Z    -0.00067 -0.01812 -0.00002 -0.01582  0.00231 -0.02594
    C20      X     0.00033  0.01839  0.00091  0.01735 -0.00227  0.02368
    C20      Y     0.00030 -0.03880 -0.01596  0.00939  0.02920  0.00493
    C20      Z     0.00017  0.00218  0.00318 -0.00998  0.01554  0.01033
    C21      X     0.00049  0.04008 -0.03546 -0.00248  0.00527  0.00362
    C21      Y    -0.00246 -0.02800 -0.00249  0.00387  0.00253  0.00681
    C21      Z    -0.00132  0.01237 -0.00606  0.01330  0.02601  0.02771
    C22      X    -0.00239  0.02640 -0.03052 -0.01477 -0.00965 -0.00466
    C22      Y    -0.00881  0.00658 -0.02131 -0.00486 -0.00229  0.02671
    C22      Z    -0.00031 -0.04521  0.01725 -0.02295 -0.02238 -0.00501
    H23      X    -0.00007  0.04345  0.00328  0.01450 -0.07605 -0.02606
    H23      Y    -0.00104  0.01796 -0.00427  0.00513 -0.04217 -0.01672
    H23      Z    -0.00282 -0.02227  0.00396 -0.05154  0.04109 -0.01742
    H24      X    -0.00489  0.03581 -0.06064 -0.01043  0.00155  0.00107
    H24      Y    -0.00559  0.00788 -0.05102 -0.02370 -0.01413  0.04038
    H24      Z    -0.00023 -0.05696  0.08056 -0.00894 -0.02298 -0.02485
    H25      X    -0.00252  0.03789 -0.07583 -0.02870 -0.01923  0.01025
    H25      Y    -0.00398 -0.03182  0.05582  0.03033  0.01934 -0.01246
    H25      Z     0.00383  0.01913 -0.03256  0.00928  0.03113  0.04329
    H26      X    -0.00002  0.00806 -0.01165  0.07168 -0.02398  0.03308
    H26      Y    -0.00056 -0.03878 -0.00928 -0.03653  0.06749  0.00841
    H26      Z     0.00112  0.00538  0.00068  0.01778 -0.01515  0.00366
    C27      X    -0.00070 -0.03542  0.00088 -0.04363 -0.02374 -0.05926
    C27      Y    -0.00043  0.00552 -0.00634  0.01796  0.00479  0.01359
    C27      Z    -0.00084  0.00903  0.00615  0.01764  0.01718  0.02378
    H28      X    -0.00069 -0.03163  0.00133 -0.07431 -0.05360 -0.09182
    H28      Y    -0.00025  0.00402 -0.00633  0.02596  0.01416  0.02271
    H28      Z    -0.00062  0.00715  0.00584  0.02775  0.02888  0.03553
    C29      X     0.00008 -0.04178 -0.00400  0.04103  0.05647  0.03343
    C29      Y     0.00023  0.00735 -0.00678 -0.00584 -0.02135 -0.01243
    C29      Z     0.00044  0.01115  0.00665 -0.01046 -0.01487 -0.00891
    H30      X    -0.00019 -0.04234 -0.00602  0.07223  0.08415  0.06812
    H30      Y     0.00037  0.00801 -0.00647 -0.01537 -0.03022 -0.02272
    H30      Z     0.00049  0.01184  0.00705 -0.02178 -0.02613 -0.02173
    C31      X    -0.00034 -0.05456  0.00315 -0.02825  0.01147 -0.04658
    C31      Y    -0.00021  0.01095 -0.00789  0.01324 -0.00746  0.00932
    C31      Z    -0.00060  0.01540  0.00562  0.01267  0.00569  0.01953
    H32      X    -0.00024 -0.06640  0.00671 -0.04922  0.00649 -0.07321
    H32      Y    -0.00007  0.01416 -0.00910  0.01882 -0.00671  0.01640
    H32      Z    -0.00145  0.01938  0.00534  0.02014  0.00970  0.02905
    C33      X     0.00003 -0.05782 -0.00028  0.01714  0.05581  0.00462
    C33      Y     0.00032  0.01177 -0.00780  0.00087 -0.02185 -0.00501
    C33      Z    -0.00014  0.01646  0.00593 -0.00260 -0.01192  0.00181
    H34      X     0.00022 -0.07220  0.00024  0.03233  0.08677  0.01957
    H34      Y     0.00089  0.01571 -0.00856 -0.00282 -0.03266 -0.00950
    H34      Z    -0.00034  0.02140  0.00588 -0.00791 -0.02209 -0.00325
    C35      X     0.00092  0.05691 -0.07155 -0.01875 -0.00263  0.02227
    C35      Y    -0.00462 -0.00594 -0.06298 -0.02387 -0.01326  0.03256
    C35      Z     0.00175 -0.03936 -0.06352 -0.04959 -0.03132  0.02024
    H36      X    -0.00169  0.05127 -0.07410 -0.03229 -0.01612  0.01969
    H36      Y    -0.00460 -0.00618 -0.01687 -0.00126 -0.00044  0.01941
    H36      Z     0.00334 -0.03500 -0.11869 -0.06774 -0.03740  0.03836
    H37      X    -0.00246  0.07466 -0.09453 -0.01925  0.00330  0.03669
    H37      Y    -0.00713 -0.00196 -0.11468 -0.04934 -0.02754  0.04893
    H37      Z     0.00439 -0.05932 -0.07602 -0.06992 -0.05085  0.01489
    C38      X     0.00040  0.06877 -0.07178 -0.00280  0.01507  0.02876
    C38      Y    -0.00119 -0.02308 -0.08760 -0.03569 -0.02123  0.03410
    C38      Z     0.00018 -0.01202 -0.04572 -0.02154 -0.00452  0.02767
    H39      X     0.00119  0.07773 -0.06535  0.01351  0.03166  0.03215
    H39      Y    -0.00005 -0.02262 -0.14690 -0.06349 -0.03735  0.05260
    H39      Z    -0.00090 -0.01800  0.00219 -0.00734 -0.00074  0.00923
    H40      X     0.00080  0.08870 -0.10191 -0.00678  0.01853  0.04693
    H40      Y     0.00017 -0.03283 -0.10481 -0.04377 -0.02625  0.03597
    H40      Z     0.00265 -0.00394 -0.10069 -0.03659 -0.00759  0.04938
    C41      X    -0.00008  0.04953  0.01567 -0.04197  0.01456  0.02589
    C41      Y     0.00012 -0.03206 -0.00853 -0.03349  0.05657  0.00625
    C41      Z     0.00003 -0.00989  0.01014 -0.07316  0.07654  0.01286
    H42      X    -0.00070  0.06180  0.02006 -0.05691 -0.00208  0.01071
    H42      Y    -0.00000 -0.03523 -0.01536  0.01098  0.02310  0.00288
    H42      Z     0.00013 -0.01303  0.01599 -0.11874  0.12684  0.02566
    H43      X    -0.00004  0.05937  0.02072 -0.06351  0.03784  0.04252
    H43      Y    -0.00063 -0.04669 -0.00600 -0.07082  0.10889  0.01577
    H43      Z    -0.00016 -0.00888  0.01267 -0.08926  0.09633  0.02143
    C44      X    -0.00031  0.04907  0.01546 -0.04100  0.01420  0.02640
    C44      Y    -0.00099 -0.00075  0.00284 -0.07540  0.04800 -0.00332
    C44      Z    -0.00067 -0.01880  0.00443 -0.04723  0.03816 -0.01420
    H45      X    -0.00025  0.07036  0.02308 -0.06965  0.01180  0.02264
    H45      Y    -0.00073  0.00659  0.00663 -0.09420  0.05307 -0.00520
    H45      Z     0.00047 -0.02755  0.00751 -0.08307  0.07083 -0.01566
    H46      X     0.00034  0.04056  0.01440 -0.04036  0.04139  0.04545
    H46      Y     0.00027  0.00206  0.00914 -0.11872  0.07910 -0.00141
    H46      Z    -0.00206 -0.01704 -0.00031 -0.01139 -0.00089 -0.02498
    C47      X    -0.00029  0.02056  0.00335  0.00733 -0.01372  0.00652
    C47      Y    -0.00045  0.05023  0.00354 -0.03466 -0.06864 -0.03779
    C47      Z    -0.00050 -0.02238 -0.01064  0.04005 -0.07441 -0.06593
    H48      X    -0.00183  0.00894 -0.00418  0.03823 -0.04507 -0.01480
    H48      Y     0.00098  0.06228  0.00117  0.00100 -0.12175 -0.05117
    H48      Z    -0.00016 -0.02150 -0.01325  0.05895 -0.09887 -0.07546
    H49      X    -0.00034  0.04063  0.00779 -0.00788 -0.02977  0.00091
    H49      Y    -0.00059  0.06296  0.00646 -0.05033 -0.07727 -0.04439
    H49      Z    -0.00088 -0.03078 -0.01210  0.02573 -0.06246 -0.07417
    H50      X    -0.00129  0.00534  0.00481 -0.00231  0.03838  0.03514
    H50      Y    -0.00139  0.05138  0.00652 -0.06293 -0.04559 -0.03445
    H50      Z     0.00098 -0.01818 -0.01469  0.07707 -0.12046 -0.08004
    C51      X     0.00025  0.01436  0.00022  0.01911 -0.00140  0.02119
    C51      Y     0.00006 -0.06766 -0.03797  0.10757 -0.01610  0.01094
    C51      Z    -0.00043  0.01489 -0.00200  0.01571 -0.00399  0.02288
    H52      X    -0.00073 -0.00873 -0.01242  0.07275 -0.02219  0.02598
    H52      Y    -0.00113 -0.07230 -0.04493  0.14155 -0.03537  0.00619
    H52      Z    -0.00238  0.02179 -0.01000  0.06058 -0.03725  0.00533
    H53      X     0.00014  0.02639 -0.00003  0.02109 -0.00786  0.02772
    H53      Y    -0.00024 -0.08281 -0.03927  0.10180 -0.00195  0.03433
    H53      Z    -0.00051  0.01896 -0.00241  0.01570 -0.00494  0.03126
    H54      X     0.00074  0.02341  0.01333 -0.03674  0.02764  0.00829
    H54      Y     0.00057 -0.07218 -0.04884  0.16045 -0.04755 -0.00136
    H54      Z    -0.00125  0.01534  0.00296 -0.01301  0.01490  0.04146
    C55      X     0.00102  0.04006  0.01859  0.03006  0.03721 -0.00817
    C55      Y    -0.00095 -0.04635  0.01046  0.00486  0.00551 -0.00224
    C55      Z    -0.00054  0.03639  0.04754  0.05459  0.06401  0.02477
    H56      X    -0.00072  0.02211  0.03361  0.02700  0.02619 -0.02228
    H56      Y    -0.00166 -0.04865  0.07133  0.03466  0.02482 -0.02105
    H56      Z    -0.00005  0.05157  0.07952  0.08005  0.08909  0.02385
    H57      X     0.00019  0.05847  0.00212  0.03247  0.04793  0.00648
    H57      Y     0.00056 -0.06056  0.01002  0.00014  0.00441 -0.00711
    H57      Z     0.00008  0.04170  0.03205  0.05293  0.07296  0.03424
    H58      X     0.00012  0.03939  0.06027  0.05449  0.06207 -0.01725
    H58      Y    -0.00045 -0.04384 -0.03909 -0.01894 -0.00958  0.01261
    H58      Z    -0.00017  0.03352  0.07187  0.06169  0.05964  0.01373
    C59      X     0.00075  0.00254  0.02461 -0.02127 -0.02869 -0.02417
    C59      Y    -0.00311  0.02257  0.04182  0.02155  0.00936  0.02309
    C59      Z     0.00053 -0.06765  0.02678 -0.03859 -0.04009 -0.01601
    H60      X    -0.00470 -0.01845  0.05190 -0.02250 -0.03705 -0.04826
    H60      Y    -0.00039  0.03126  0.07062  0.03325  0.01397  0.02355
    H60      Z    -0.00090 -0.07315  0.09290 -0.02224 -0.04001 -0.03701
    H61      X     0.00456  0.01787  0.00677 -0.02057 -0.02302 -0.00687
    H61      Y    -0.00108  0.02846  0.02057  0.01233  0.00662  0.03799
    H61      Z    -0.00420 -0.09145  0.02679 -0.05788 -0.05822 -0.02716
    H62      X     0.00217 -0.00852  0.05476 -0.02612 -0.03971 -0.03243
    H62      Y    -0.00304  0.02139  0.08097  0.03853  0.01511  0.00734
    H62      Z    -0.00094 -0.05669 -0.03280 -0.04806 -0.03462  0.00432
  
  vibration #            7        8        9       10       11       12
                  -------- -------- -------- -------- -------- --------
  frequencies        76.41    83.32    97.01   108.70   108.90   126.66
  intensities         1.60     2.25     1.12     2.95     0.90     1.45
  reduc. mass         0.95     1.95     0.90     0.72     0.60     2.00
  force const         0.00     0.01     0.01     0.00     0.00     0.02
    Rh1      X    -0.01335  0.01730 -0.00322  0.00616  0.00413  0.02027
    Rh1      Y     0.01760  0.00554 -0.00229  0.00033  0.01202  0.02177
    Rh1      Z     0.00485 -0.02147  0.00253 -0.01457  0.00347  0.01430
    O2       X    -0.00892 -0.01785  0.01940 -0.06082  0.01142  0.01074
    O2       Y     0.00703  0.01764 -0.00262  0.03842 -0.01902 -0.03836
    O2       Z     0.00548 -0.02037  0.00209 -0.01559  0.01546  0.01569
    C3       X    -0.00390 -0.02989  0.02027 -0.07015  0.00958  0.00458
    C3       Y    -0.04503 -0.02075  0.00274 -0.01013 -0.03755 -0.02525
    C3       Z    -0.00482  0.00397  0.00046  0.00416  0.01768  0.02811
    N4       X    -0.00703 -0.01260  0.01878 -0.05557  0.00888  0.01178
    N4       Y    -0.07986 -0.05092  0.00725 -0.05636 -0.01541  0.02361
    N4       Z    -0.01506  0.02826 -0.00030  0.02108  0.01971  0.04511
    C5       X    -0.01231  0.02755  0.02002 -0.02913  0.00335  0.02526
    C5       Y    -0.05083 -0.03490 -0.00026 -0.01709  0.01879  0.03711
    C5       Z    -0.01033  0.03020 -0.00147  0.02698  0.02648  0.04824
    C6       X     0.01765  0.05396  0.01175 -0.01249  0.00105  0.02902
    C6       Y    -0.02587 -0.02572 -0.00733 -0.00192  0.02531  0.03294
    C6       Z     0.01471  0.02532 -0.00708  0.04373  0.05031  0.04250
    C7       X    -0.02677  0.06295  0.04672 -0.01784 -0.01914 -0.00911
    C7       Y    -0.05035 -0.01979  0.01307  0.01744  0.01348  0.01905
    C7       Z    -0.02913  0.05728  0.01721  0.00587  0.00475  0.02605
    N8       X    -0.03951  0.10211  0.07967 -0.01509 -0.04260 -0.04998
    N8       Y    -0.04917 -0.00233  0.02528  0.06516 -0.00211  0.00570
    N8       Z    -0.04793  0.09181  0.04893 -0.04352 -0.00998 -0.01545
    H9       X     0.03945  0.03901  0.00939 -0.03664 -0.00789  0.01556
    H9       Y    -0.03600 -0.02967 -0.00348 -0.02010  0.00658  0.03500
    H9       Z     0.03014  0.02580 -0.01164  0.05663  0.06733  0.03719
    H10      X     0.02998  0.08686  0.00680  0.01906  0.00581  0.03383
    H10      Y    -0.01336 -0.02285 -0.01247  0.02034  0.04895  0.02718
    H10      Z     0.02273  0.03574 -0.01035  0.06045  0.06057  0.04077
    H11      X    -0.00334 -0.02340  0.01948 -0.06424  0.01086  0.00592
    H11      Y    -0.11327 -0.08195  0.00421 -0.07713 -0.03401  0.02520
    H11      Z    -0.02348  0.04631 -0.00175  0.03586  0.01489  0.05585
    H12      X     0.00343 -0.05492  0.02191 -0.09150  0.00962 -0.00634
    H12      Y    -0.06547 -0.03266  0.00376 -0.01825 -0.07174 -0.05226
    H12      Z    -0.00710  0.00543  0.00038  0.00550  0.01514  0.02713
    P13      X    -0.01353 -0.02248 -0.02813  0.02001 -0.03007  0.01151
    P13      Y     0.01261 -0.00163  0.00193 -0.00767  0.01471  0.00383
    P13      Z     0.00243 -0.01244  0.00805 -0.01579  0.00488  0.00146
    P14      X    -0.01087  0.00113 -0.03281  0.01973  0.03589 -0.00500
    P14      Y     0.02151  0.01121  0.00385 -0.00030  0.00218  0.01540
    P14      Z     0.01417 -0.00817 -0.00265 -0.00056 -0.00836  0.00465
    C15      X    -0.01584 -0.01831 -0.02869  0.01352 -0.02296  0.00611
    C15      Y     0.00933 -0.00547  0.00345 -0.01006  0.01004  0.00521
    C15      Z     0.01305 -0.00480 -0.00085 -0.00448  0.01114  0.00622
    C16      X     0.00826  0.00006 -0.03557  0.01054  0.02234 -0.00569
    C16      Y     0.00856 -0.00357  0.00400 -0.00289  0.00288  0.01195
    C16      Z     0.01100 -0.00398 -0.00053  0.00466 -0.00056  0.00931
    H17      X    -0.01334  0.02158 -0.00118  0.00453  0.00514  0.02384
    H17      Y     0.04188  0.03683  0.01677 -0.01850  0.01008  0.03603
    H17      Z     0.00363 -0.01710  0.02227 -0.04425  0.00576  0.01203
    H18      X     0.02744  0.06172  0.00436 -0.00663  0.02080  0.02840
    H18      Y     0.02088  0.00627 -0.00415 -0.00049  0.01583  0.02138
    H18      Z     0.00274 -0.03281  0.00174 -0.02033  0.02327  0.02016
    C19      X     0.00750 -0.03816 -0.00758  0.02169 -0.02935 -0.00765
    C19      Y     0.02644 -0.01118  0.02118  0.01212  0.00098 -0.01688
    C19      Z    -0.01432 -0.00356  0.01070  0.03330 -0.04404 -0.00094
    C20      X    -0.00726 -0.03171 -0.02404 -0.00910 -0.00821 -0.02396
    C20      Y    -0.02233  0.00990 -0.02273  0.00343 -0.00779 -0.02746
    C20      Z    -0.00594 -0.00850  0.00608 -0.03579  0.01774 -0.03749
    C21      X    -0.00249 -0.00128 -0.00796  0.01581  0.02035 -0.01230
    C21      Y    -0.00514  0.01131  0.00941  0.02834  0.03354 -0.01600
    C21      Z     0.00764 -0.01020  0.02203  0.01575 -0.00270 -0.02461
    C22      X     0.00852  0.00582 -0.02800  0.00061  0.00513 -0.00787
    C22      Y     0.04781  0.02544 -0.00065 -0.02956 -0.04512  0.00779
    C22      Z     0.01558  0.00755 -0.03709 -0.00810 -0.02082 -0.01828
    H23      X     0.02690 -0.06472  0.01938  0.04940 -0.05936 -0.03259
    H23      Y     0.03531 -0.02370  0.02619 -0.00614  0.01373 -0.01230
    H23      Z    -0.02853  0.01613 -0.00129  0.04563 -0.04995 -0.00006
    H24      X    -0.01977 -0.01369  0.00092  0.01710  0.03345  0.00746
    H24      Y     0.04852  0.02922  0.00239 -0.04436 -0.07042 -0.00220
    H24      Z     0.04581  0.02518 -0.07205 -0.01128 -0.02657 -0.02543
    H25      X    -0.00914 -0.00323 -0.01065 -0.00853 -0.00429  0.02062
    H25      Y     0.01169  0.01614 -0.00595  0.04240  0.05371 -0.02532
    H25      Z    -0.00506 -0.01353  0.04159  0.02373 -0.00165 -0.04620
    H26      X    -0.01699 -0.03849 -0.02592 -0.04084  0.00979 -0.07476
    H26      Y    -0.03274  0.02954 -0.02898  0.02530 -0.02099 -0.02170
    H26      Z     0.00762 -0.02584  0.01364 -0.04707  0.02465 -0.02608
    C27      X     0.05106  0.00176  0.01017  0.00904  0.05457 -0.00860
    C27      Y    -0.00544 -0.00675 -0.00830 -0.00523 -0.00803  0.01121
    C27      Z     0.00591  0.00529 -0.01663  0.01677 -0.00366  0.01435
    H28      X     0.07264  0.01728  0.00172  0.00519  0.09056 -0.01601
    H28      Y    -0.00559 -0.00557 -0.00584  0.00263 -0.01260  0.01462
    H28      Z     0.00464  0.00582 -0.01328  0.02563 -0.01050  0.01812
    C29      X    -0.00832 -0.03817  0.02565  0.01458 -0.04602  0.01704
    C29      Y    -0.00214 -0.00917 -0.00976 -0.02245  0.00929 -0.00064
    C29      Z     0.01247  0.00372 -0.01976 -0.00222  0.02011  0.00248
    H30      X    -0.03088 -0.05176  0.02709  0.01278 -0.08073  0.02366
    H30      Y    -0.00168 -0.01042 -0.01008 -0.02865  0.01464 -0.00553
    H30      Z     0.01435  0.00297 -0.02011 -0.00897  0.02790 -0.00267
    C31      X     0.06855 -0.01972  0.08170  0.01412  0.03794  0.00341
    C31      Y    -0.01925 -0.01009 -0.02625 -0.01807 -0.01075  0.00467
    C31      Z     0.00214  0.01454 -0.04124  0.01756  0.00405  0.01192
    H32      X     0.10580 -0.02044  0.12986  0.01495  0.06446  0.00302
    H32      Y    -0.03100 -0.01168 -0.03892 -0.02041 -0.01919  0.00422
    H32      Z    -0.00374  0.02186 -0.05897  0.02570  0.00018  0.01432
    C33      X     0.03476 -0.04106  0.09039  0.01751 -0.01641  0.01760
    C33      Y    -0.01631 -0.01104 -0.02717 -0.02673 -0.00056 -0.00079
    C33      Z     0.00692  0.01433 -0.04298  0.00823  0.01731  0.00506
    H34      X     0.04366 -0.05877  0.14529  0.02084 -0.03294  0.02778
    H34      Y    -0.02558 -0.01368 -0.04116 -0.03611 -0.00145 -0.00532
    H34      Z     0.00520  0.02187 -0.06205  0.00875  0.02404  0.00191
    C35      X     0.01680  0.00281 -0.00298 -0.01792 -0.02630 -0.00266
    C35      Y     0.01197  0.01371  0.01660 -0.01708 -0.02659  0.00351
    C35      Z    -0.02385 -0.00981  0.00163 -0.00517 -0.01800 -0.01863
    H36      X     0.03524  0.01065 -0.02049 -0.04195 -0.05421  0.00347
    H36      Y     0.02305  0.01806  0.00401 -0.00508 -0.01129  0.00132
    H36      Z    -0.05079 -0.02083  0.02990 -0.00257 -0.01665 -0.02021
    H37      X     0.01802 -0.00085  0.01280 -0.02396 -0.03776 -0.00092
    H37      Y     0.00606  0.01054  0.02862 -0.03694 -0.05264  0.00745
    H37      Z    -0.03021 -0.00760 -0.00916 -0.01363 -0.02450 -0.01780
    C38      X     0.00024 -0.00583  0.01921  0.00626 -0.00026 -0.01148
    C38      Y    -0.02802  0.00379  0.03314  0.00660  0.00372 -0.00716
    C38      Z    -0.01464 -0.01211  0.01681  0.00562 -0.01015 -0.01906
    H39      X    -0.01303 -0.01178  0.03683  0.02951  0.02471 -0.02118
    H39      Y    -0.04788 -0.00277  0.05218 -0.00504 -0.01248 -0.00513
    H39      Z     0.01116 -0.00257 -0.01100  0.00139 -0.01158 -0.01475
    H40      X     0.00291 -0.00832  0.03668 -0.00498 -0.01909 -0.00717
    H40      Y    -0.05184 -0.00233  0.04381  0.02016  0.02036 -0.01487
    H40      Z    -0.04371 -0.02295  0.04956  0.01181 -0.00782 -0.02464
    C41      X     0.00972 -0.02336 -0.01096 -0.00257  0.00240 -0.01406
    C41      Y    -0.02582  0.02526 -0.02496  0.02233 -0.01644 -0.02004
    C41      Z    -0.03072  0.02509 -0.01259  0.00832 -0.01367 -0.02380
    H42      X     0.02270 -0.02816  0.00258  0.01863 -0.00968  0.00360
    H42      Y    -0.01784  0.00633 -0.01863  0.00154 -0.00611 -0.02510
    H42      Z    -0.04789  0.05074 -0.02811  0.02133 -0.01924 -0.02776
    H43      X     0.00902 -0.01639 -0.01645 -0.01874  0.02079 -0.02890
    H43      Y    -0.05133  0.05348 -0.04527  0.04272 -0.03238 -0.02086
    H43      Z    -0.03614  0.03359 -0.01885  0.00594 -0.00950 -0.03001
    C44      X     0.00981 -0.02420 -0.01185 -0.00307  0.00309 -0.01530
    C44      Y    -0.00472  0.02358 -0.00580  0.03780 -0.01659 -0.00998
    C44      Z    -0.02532  0.01309 -0.00082  0.03632 -0.04202 -0.00223
    H45      X     0.02257 -0.02390 -0.00032  0.00348  0.00563 -0.01159
    H45      Y    -0.00233  0.02738 -0.00314  0.04627 -0.01965 -0.00669
    H45      Z    -0.04126  0.03275 -0.01257  0.06641 -0.06384  0.00729
    H46      X    -0.00244 -0.01523 -0.02739 -0.02418  0.01901 -0.02767
    H46      Y    -0.01356  0.04136 -0.01290  0.05821 -0.02732 -0.00345
    H46      Z    -0.01212 -0.00609  0.01252  0.02929 -0.04068 -0.00163
    C47      X     0.00009 -0.03386 -0.01456  0.02146 -0.03208  0.00270
    C47      Y     0.05695 -0.03827  0.05273  0.02536 -0.00611 -0.05949
    C47      Z    -0.00012 -0.03903  0.03479  0.06689 -0.09207 -0.01022
    H48      X    -0.00277 -0.04645 -0.01068  0.04865 -0.07008  0.00690
    H48      Y     0.08538 -0.06974  0.08241  0.00813  0.00517 -0.07340
    H48      Z     0.00804 -0.05195  0.04507  0.06829 -0.09803 -0.01345
    H49      X     0.01550 -0.04304 -0.00101  0.02181 -0.02565 -0.02138
    H49      Y     0.06337 -0.04160  0.05869  0.03594 -0.01139 -0.07705
    H49      Z    -0.01817 -0.02666  0.02006  0.10263 -0.12737 -0.00799
    H50      X    -0.01712 -0.01051 -0.03555 -0.00580 -0.00388  0.02983
    H50      Y     0.04565 -0.02344  0.04023  0.04041 -0.01481 -0.06253
    H50      Z     0.01926 -0.06477  0.05657  0.05827 -0.09131 -0.01600
    C51      X    -0.00835 -0.03469 -0.02730 -0.00454 -0.01585 -0.01798
    C51      Y    -0.03565 -0.01440 -0.03949 -0.02746  0.00144 -0.08081
    C51      Z    -0.00732  0.00185  0.01803 -0.07177  0.05774 -0.09251
    H52      X    -0.01757 -0.05477 -0.04645 -0.01048 -0.02112 -0.04078
    H52      Y    -0.03704 -0.02153 -0.03679 -0.04829  0.00664 -0.09892
    H52      Z    -0.00421  0.00186  0.04163 -0.12042  0.07454 -0.11952
    H53      X    -0.00801 -0.02071 -0.01605 -0.02098  0.00913 -0.04364
    H53      Y    -0.04492 -0.02041 -0.06947  0.00700 -0.00361 -0.08401
    H53      Z    -0.00902  0.00907  0.01878 -0.07460  0.07136 -0.10818
    H54      X    -0.00028 -0.03124 -0.02043  0.01812 -0.04039  0.03210
    H54      Y    -0.03578 -0.02296 -0.02951 -0.06609  0.00987 -0.10827
    H54      Z    -0.01076  0.00912  0.00424 -0.04153  0.06028 -0.08620
    C55      X     0.00664  0.00041 -0.00300  0.04715  0.05476 -0.06125
    C55      Y    -0.01943  0.01262  0.01109  0.04884  0.06044 -0.04901
    C55      Z     0.03871 -0.00951  0.02690  0.03013  0.00672 -0.04654
    H56      X     0.00131  0.00370 -0.02249  0.05573  0.07464 -0.05455
    H56      Y    -0.00129  0.01621 -0.00563  0.07166  0.09203 -0.06436
    H56      Z     0.05759 -0.01001  0.03259  0.03942  0.01193 -0.06477
    H57      X     0.01244 -0.00320  0.01652  0.03747  0.03327 -0.06717
    H57      Y    -0.03374  0.01335  0.01515  0.05938  0.07530 -0.07101
    H57      Z     0.03230 -0.01227  0.04817  0.02992 -0.00081 -0.07010
    H58      X     0.01404  0.00116  0.00206  0.06949  0.08031 -0.10048
    H58      Y    -0.03352  0.01013  0.02438  0.03027  0.03380 -0.03613
    H58      Z     0.05007 -0.00713  0.00477  0.03126  0.01539 -0.02440
    C59      X     0.04606  0.03432 -0.07699 -0.01611 -0.02151 -0.03373
    C59      Y     0.09655  0.04832 -0.02085 -0.05006 -0.08095  0.01529
    C59      Z     0.01956  0.01699 -0.06096 -0.01084 -0.02436 -0.03938
    H60      X     0.03448  0.03099 -0.11003  0.00458  0.01566 -0.04332
    H60      Y     0.12035  0.06075 -0.02789 -0.06211 -0.10273  0.01962
    H60      Z     0.04607  0.03246 -0.10129 -0.01127 -0.02453 -0.04145
    H61      X     0.05801  0.03922 -0.05390 -0.03413 -0.05286 -0.02784
    H61      Y     0.11130  0.05763 -0.00414 -0.07248 -0.11851  0.01028
    H61      Z     0.02060  0.02341 -0.08208 -0.01246 -0.02434 -0.06246
    H62      X     0.07425  0.05421 -0.10072 -0.03215 -0.04709 -0.04946
    H62      Y     0.09291  0.04550 -0.04163 -0.03234 -0.05196  0.02351
    H62      Z    -0.00311  0.00100 -0.02165 -0.01045 -0.02420 -0.03145
  
  vibration #           13       14       15       16       17       18
                  -------- -------- -------- -------- -------- --------
  frequencies       130.38   138.27   144.88   157.12   173.93   174.64
  intensities         2.09     0.15     0.18     3.24     0.94     1.14
  reduc. mass         2.69     0.84     0.60     2.11     0.79     4.55
  force const         0.03     0.01     0.01     0.03     0.01     0.08
    Rh1      X     0.00189  0.00708  0.00548  0.02203  0.01051  0.00610
    Rh1      Y     0.00974  0.01110  0.00680 -0.01178  0.00184  0.03608
    Rh1      Z     0.01581 -0.01659 -0.01032 -0.02303 -0.01837 -0.02456
    O2       X    -0.01037 -0.01148  0.01335  0.01395 -0.01354 -0.01925
    O2       Y     0.15010 -0.02151  0.00878  0.02463 -0.02555 -0.00923
    O2       Z     0.01302 -0.02416 -0.00455 -0.00950 -0.02685 -0.03423
    C3       X    -0.00650 -0.01229  0.01107 -0.00343 -0.01978 -0.01743
    C3       Y     0.08015 -0.01701 -0.00084  0.02380 -0.01009 -0.04292
    C3       Z     0.00627 -0.02290 -0.00064  0.02394 -0.01432 -0.03941
    N4       X    -0.00201 -0.01030  0.01386  0.01927 -0.01185 -0.01972
    N4       Y    -0.05454  0.00417  0.00428  0.01992  0.01598 -0.01662
    N4       Z    -0.00735 -0.01723  0.00392  0.05649  0.00177 -0.03890
    C5       X     0.00165  0.00122  0.01601  0.05169  0.00754 -0.01259
    C5       Y    -0.04476  0.00340  0.02273  0.03682  0.01543  0.02120
    C5       Z    -0.00575 -0.01802  0.00813  0.06245  0.00163 -0.03327
    C6       X     0.02430  0.01063  0.00886  0.04147  0.00779  0.00069
    C6       Y    -0.02550  0.00701  0.02012  0.01894  0.00983  0.03794
    C6       Z     0.00880 -0.02316  0.02008  0.05249 -0.00777 -0.00882
    C7       X     0.01892  0.01202 -0.00805 -0.00017 -0.00018 -0.01007
    C7       Y    -0.00853  0.00186  0.00976  0.01600  0.00741  0.01497
    C7       Z    -0.02304 -0.00449 -0.00730  0.02331  0.00102 -0.02421
    N8       X     0.03477  0.02436 -0.03678 -0.07022 -0.01612 -0.00400
    N8       Y     0.05497 -0.00168 -0.00924  0.01502  0.00381 -0.01975
    N8       Z    -0.07241  0.01641 -0.02556 -0.07244 -0.01696  0.02352
    H9       X     0.03640  0.01349 -0.01251 -0.01306 -0.01019 -0.00037
    H9       Y    -0.03157  0.00912  0.00565  0.01033  0.01041  0.01887
    H9       Z     0.01824 -0.02432  0.02942  0.04821 -0.01275  0.01056
    H10      X     0.04154  0.02068  0.00613  0.05313  0.01188  0.01156
    H10      Y    -0.01703  0.00449  0.03800  0.02568  0.00828  0.06377
    H10      Z     0.01696 -0.02122  0.02670  0.05862 -0.00699  0.00398
    H11      X    -0.00146 -0.01323  0.01293  0.00566 -0.01922 -0.01897
    H11      Y    -0.08376  0.00347 -0.00480  0.01817  0.02600 -0.04803
    H11      Z    -0.00982 -0.01190  0.00498  0.08091  0.01579 -0.04192
    H12      X    -0.00639 -0.01358  0.00778 -0.03471 -0.03166 -0.01213
    H12      Y     0.12244 -0.03064 -0.01355  0.02610 -0.01697 -0.09410
    H12      Z     0.00942 -0.02381 -0.00122  0.02728 -0.01373 -0.04382
    P13      X    -0.00234 -0.00408 -0.00535 -0.02065  0.02329 -0.00676
    P13      Y    -0.00229  0.02311 -0.02802 -0.00655 -0.01183 -0.00056
    P13      Z     0.01643 -0.01496 -0.00297 -0.01222 -0.00144  0.01542
    P14      X    -0.00155  0.00460  0.00035 -0.02537 -0.02996  0.01419
    P14      Y    -0.00810 -0.00357  0.01748 -0.02286  0.00431  0.00082
    P14      Z     0.00363  0.03645 -0.01578 -0.00194  0.01125  0.00404
    C15      X    -0.00575  0.00330 -0.00960 -0.02109 -0.02588  0.01056
    C15      Y     0.00484  0.00606 -0.03171 -0.00921  0.00655  0.00572
    C15      Z     0.00923  0.01921 -0.01369 -0.00958  0.01261  0.01169
    C16      X     0.00576  0.00842 -0.00355 -0.03769  0.01291 -0.00678
    C16      Y    -0.00244  0.01534 -0.01372 -0.01460 -0.00866  0.00182
    C16      Z    -0.00177  0.03327  0.00222 -0.00924 -0.00605  0.00621
    H17      X     0.00138  0.00590  0.00829  0.03049  0.01148  0.00360
    H17      Y     0.02806  0.01056  0.01292  0.00587  0.00531  0.03168
    H17      Z     0.01665 -0.01678 -0.00300 -0.01496 -0.02162 -0.01899
    H18      X     0.04679  0.03012 -0.00344  0.03581 -0.00650  0.02312
    H18      Y     0.00891  0.01061  0.00673 -0.01481 -0.00150  0.03620
    H18      Z    -0.01217 -0.03291 -0.01239 -0.02764 -0.02903 -0.03130
    C19      X    -0.00615  0.00055  0.01316 -0.01061  0.01821 -0.01062
    C19      Y    -0.01452  0.03620 -0.00582  0.01372 -0.02483 -0.01848
    C19      Z    -0.00329 -0.01965  0.02514 -0.00837  0.01341  0.02037
    C20      X     0.00485 -0.00069  0.01879 -0.01293  0.02861 -0.00676
    C20      Y    -0.01264  0.03646 -0.00072 -0.00044 -0.00643 -0.02401
    C20      Z     0.02009 -0.01402  0.03532 -0.00040  0.00485  0.03442
    C21      X    -0.00581 -0.00313 -0.00958 -0.00623 -0.02448  0.01367
    C21      Y    -0.03543 -0.04972  0.01305 -0.02625  0.00111 -0.01051
    C21      Z    -0.02028  0.01166 -0.03902  0.02513  0.02773  0.00436
    C22      X    -0.00016 -0.00496 -0.00355 -0.00800 -0.02811  0.01107
    C22      Y    -0.01588 -0.03517  0.01980  0.00133  0.01658 -0.01599
    C22      Z    -0.00830  0.01404 -0.03169  0.02435  0.00292  0.01164
    H23      X    -0.02360  0.00895  0.04566  0.00445 -0.00137 -0.00558
    H23      Y    -0.00564  0.03014 -0.01712  0.00604 -0.02652 -0.00735
    H23      Z    -0.00863 -0.01484  0.02900 -0.00376  0.01923  0.00692
    H24      X     0.01448  0.02136  0.00446 -0.03783 -0.01385  0.01043
    H24      Y    -0.01857 -0.04966  0.00898  0.03038  0.01866 -0.01841
    H24      Z    -0.02212 -0.00046 -0.03005  0.02880 -0.01512  0.01522
    H25      X     0.01904  0.03139  0.00500 -0.00964 -0.02984  0.02294
    H25      Y    -0.04866 -0.05359  0.01048 -0.03530  0.00302 -0.00762
    H25      Z    -0.02958 -0.01798 -0.04948  0.03833  0.02953 -0.00841
    H26      X     0.01045  0.00943  0.05663  0.00749  0.04177  0.00033
    H26      Y    -0.02000  0.03645  0.00968  0.00148 -0.00431 -0.01783
    H26      Z     0.02558 -0.01791  0.01211 -0.00867 -0.00221  0.02703
    C27      X     0.01540  0.01716 -0.00025 -0.04449  0.07606 -0.03111
    C27      Y    -0.00291  0.00858 -0.02503 -0.00863 -0.02309  0.01450
    C27      Z    -0.01514  0.05083  0.04056 -0.02635 -0.03890 -0.01040
    H28      X     0.02716  0.02562  0.00891 -0.06532  0.12884 -0.05714
    H28      Y    -0.01225  0.01895 -0.00624 -0.01270 -0.04285  0.00583
    H28      Z    -0.02610  0.06153  0.06039 -0.02935 -0.06286 -0.01869
    C29      X    -0.01648  0.00157 -0.01351  0.00696 -0.08287  0.03733
    C29      Y     0.01883 -0.01991 -0.06526 -0.00346  0.03484  0.02547
    C29      Z     0.01040  0.02578 -0.00621 -0.02206  0.02940 -0.00194
    H30      X    -0.02553 -0.00533 -0.01887  0.02550 -0.13402  0.06277
    H30      Y     0.02750 -0.03161 -0.08436  0.00108  0.05713  0.03345
    H30      Z     0.02032  0.01346 -0.02650 -0.01861  0.05577  0.00547
    C31      X     0.00701  0.01813 -0.00649 -0.01508  0.05762 -0.01748
    C31      Y     0.00927 -0.01588 -0.05775 -0.00235 -0.00660  0.03519
    C31      Z    -0.01425  0.05685  0.05149 -0.04122 -0.03557 -0.02134
    H32      X     0.01395  0.02608 -0.00594 -0.01326  0.11145 -0.03586
    H32      Y     0.00918 -0.02232 -0.06400 -0.00039 -0.01912  0.04422
    H32      Z    -0.02373  0.07137  0.07551 -0.05181 -0.06197 -0.03133
    C33      X    -0.01291  0.01007 -0.01102  0.01598 -0.05350  0.02635
    C33      Y     0.02124 -0.02879 -0.07767 -0.00182  0.03035  0.03674
    C33      Z    -0.00075  0.04454  0.02936 -0.04165  0.00890 -0.02183
    H34      X    -0.02272  0.01053 -0.01434  0.04484 -0.09912  0.04730
    H34      Y     0.03103 -0.04462 -0.10227  0.00168  0.04973  0.04699
    H34      Z     0.00124  0.04747  0.03544 -0.05382  0.02322 -0.03210
    C35      X     0.00690  0.00076 -0.00883  0.01396 -0.00386  0.00321
    C35      Y    -0.01142 -0.03600  0.01587 -0.00251  0.01423 -0.01572
    C35      Z     0.00383  0.01933 -0.03902  0.03192  0.01630  0.00655
    H36      X     0.01612  0.00986 -0.00868  0.02583  0.00291  0.00359
    H36      Y    -0.02226 -0.04197  0.02018 -0.01549  0.00221 -0.01144
    H36      Z     0.01064  0.02036 -0.04424  0.03919  0.02637  0.00091
    H37      X     0.01030  0.00529 -0.01332  0.02431  0.00584  0.00195
    H37      Y     0.00230 -0.02732  0.00981  0.01682  0.03009 -0.01996
    H37      Z     0.01061  0.02051 -0.03834  0.03463  0.01659  0.00481
    C38      X    -0.00381 -0.00789 -0.01327  0.00781 -0.00770  0.00374
    C38      Y    -0.01592 -0.04881  0.01295 -0.01034  0.00511 -0.01878
    C38      Z    -0.00575  0.01548 -0.03662  0.02678  0.01700  0.00501
    H39      X    -0.01545 -0.02038 -0.01506  0.00054 -0.01236  0.00124
    H39      Y    -0.00512 -0.05289  0.01033  0.00121  0.01017 -0.02684
    H39      Z    -0.00758  0.02696 -0.03319  0.02123  0.01547  0.01368
    H40      X     0.00118 -0.01043 -0.01201  0.01602  0.00083 -0.00416
    H40      Y    -0.01830 -0.05709  0.00877 -0.01214  0.00028 -0.02015
    H40      Z    -0.00359  0.00208 -0.04091  0.03319  0.01970 -0.00502
    C41      X     0.00368  0.00119  0.01628 -0.00382  0.01551 -0.00195
    C41      Y    -0.01883  0.03778  0.00470  0.00231 -0.00349 -0.02321
    C41      Z     0.00599 -0.01385  0.05003 -0.00169  0.02117  0.03196
    H42      X    -0.00343  0.00197  0.00036 -0.00023  0.01150 -0.01898
    H42      Y    -0.01230  0.03582 -0.00530 -0.00150 -0.01131 -0.02210
    H42      Z     0.00217 -0.01195  0.07131  0.00076  0.03305  0.04057
    H43      X     0.00950  0.00481  0.03123  0.00119  0.01610  0.00701
    H43      Y    -0.02531  0.03759  0.02581  0.00070  0.01326 -0.01419
    H43      Z     0.00702 -0.01246  0.06044  0.00003  0.02483  0.03760
    C44      X     0.00369  0.00351  0.01579 -0.00270  0.01458 -0.00778
    C44      Y    -0.02392  0.04093 -0.00310  0.01467 -0.00690 -0.03615
    C44      Z    -0.00428 -0.01653  0.02915 -0.00533  0.01922  0.01439
    H45      X     0.00164  0.00460  0.01304  0.00556  0.01453 -0.01242
    H45      Y    -0.02698  0.04237 -0.00476  0.01902 -0.00518 -0.04222
    H45      Z    -0.01569 -0.01182  0.02635 -0.00139  0.02897 -0.00663
    H46      X     0.01181  0.00266  0.02824 -0.00811  0.01846  0.00749
    H46      Y    -0.03101  0.04402 -0.00527  0.02098  0.00236 -0.05078
    H46      Z    -0.00214 -0.01896  0.02468 -0.00810  0.00987  0.01943
    C47      X    -0.00362 -0.00700  0.00658 -0.02180  0.03176 -0.00318
    C47      Y    -0.02977  0.06219  0.02945  0.05056 -0.07180 -0.03536
    C47      Z    -0.01784 -0.03351  0.05419 -0.02124  0.02320  0.06482
    H48      X    -0.01199 -0.02559  0.02260 -0.04396  0.06752  0.03425
    H48      Y    -0.02705  0.06792  0.03374  0.06283 -0.13553 -0.01697
    H48      Z    -0.01905 -0.03648  0.05964 -0.02290  0.01236  0.08020
    H49      X    -0.00945  0.01243  0.02067  0.00418 -0.00139 -0.02494
    H49      Y    -0.03760  0.07434  0.04492  0.06655 -0.07856 -0.05133
    H49      Z    -0.02963 -0.04277  0.07113 -0.03439  0.08739  0.06722
    H50      X     0.01200 -0.01390 -0.02776 -0.03459  0.03747 -0.01104
    H50      Y    -0.03559  0.06645  0.03590  0.05359 -0.04230 -0.05533
    H50      Z    -0.01606 -0.03655  0.05827 -0.02078 -0.01271  0.09146
    C51      X     0.00359 -0.00038  0.01010 -0.02020  0.03083 -0.01920
    C51      Y    -0.00623  0.05730  0.02443  0.01047  0.02543 -0.07050
    C51      Z     0.02653 -0.00672  0.09318  0.03810  0.01127  0.08332
    H52      X     0.00554  0.01336  0.01817 -0.01944  0.05665 -0.07211
    H52      Y    -0.00193  0.06624  0.02087  0.00913  0.02817 -0.08599
    H52      Z     0.03507  0.00554  0.07540  0.03279 -0.00348  0.08584
    H53      X     0.00594  0.00063  0.04499  0.00496  0.02861  0.02615
[...]
  frequencies      3194.73  3199.72  3209.25  3219.36  3272.15  3589.06
  intensities         2.74     0.16     6.44     5.89     1.19    89.29
  reduc. mass         0.24     0.34     0.24     0.34     0.61     0.94
  force const         1.45     2.04     1.43     2.08     3.84     7.13
    Rh1      X    -0.00000 -0.00001  0.00000 -0.00000 -0.00003 -0.00000
    Rh1      Y    -0.00000 -0.00001  0.00001 -0.00000 -0.00002  0.00001
    Rh1      Z     0.00000 -0.00001 -0.00000 -0.00001  0.00003 -0.00001
    O2       X     0.00000 -0.00001  0.00000 -0.00001  0.00002  0.00137
    O2       Y     0.00000  0.00000 -0.00000  0.00000  0.00000  0.00009
    O2       Z     0.00001 -0.00001  0.00000 -0.00002  0.00006  0.00038
    C3       X    -0.00000  0.00002 -0.00001  0.00002 -0.00009  0.00085
    C3       Y     0.00000 -0.00000 -0.00000 -0.00000 -0.00018  0.00003
    C3       Z    -0.00001  0.00003  0.00000  0.00003  0.00023 -0.00245
    N4       X    -0.00000 -0.00000  0.00000  0.00000  0.00012 -0.06329
    N4       Y    -0.00000  0.00000  0.00000  0.00000 -0.00010  0.00225
    N4       Z     0.00000  0.00000 -0.00000  0.00001  0.00042 -0.03256
    C5       X    -0.00000 -0.00001  0.00000 -0.00001  0.00062  0.00036
    C5       Y     0.00001  0.00002 -0.00000  0.00002 -0.00086 -0.00036
    C5       Z    -0.00001 -0.00000  0.00000  0.00000 -0.00034  0.00066
    C6       X     0.00001  0.00003 -0.00001  0.00003  0.02335  0.00005
    C6       Y    -0.00006 -0.00008  0.00002 -0.00004 -0.00606 -0.00022
    C6       Z    -0.00002 -0.00004  0.00003 -0.00002 -0.09036  0.00034
    C7       X    -0.00000  0.00002  0.00000  0.00002 -0.00020  0.00004
    C7       Y     0.00000 -0.00002 -0.00000 -0.00001  0.00021  0.00012
    C7       Z     0.00000 -0.00001 -0.00000 -0.00001 -0.00005 -0.00004
    N8       X     0.00000 -0.00001 -0.00000 -0.00001 -0.00005 -0.00001
    N8       Y    -0.00000  0.00001  0.00000  0.00001  0.00001 -0.00006
    N8       Z     0.00000  0.00001 -0.00000  0.00001  0.00006 -0.00006
    H9       X    -0.00015 -0.00023  0.00008 -0.00014 -0.08513 -0.00038
    H9       Y     0.00053  0.00077 -0.00029  0.00033  0.35593  0.00038
    H9       Z     0.00054  0.00078 -0.00029  0.00034  0.34782 -0.00031
    H10      X     0.00009  0.00004 -0.00002 -0.00001 -0.19496 -0.00004
    H10      Y     0.00010  0.00003  0.00000 -0.00001 -0.27071 -0.00043
    H10      Z    -0.00035 -0.00024  0.00004 -0.00005  0.72222  0.00019
    H11      X    -0.00001 -0.00004  0.00001 -0.00009  0.00003  0.84448
    H11      Y     0.00002 -0.00001 -0.00001 -0.00000  0.00021 -0.02609
    H11      Z     0.00000 -0.00003  0.00000 -0.00006  0.00067  0.45576
    H12      X     0.00003 -0.00005 -0.00000 -0.00006 -0.00013 -0.00139
    H12      Y    -0.00001  0.00001  0.00001  0.00002  0.00013 -0.00048
    H12      Z     0.00012 -0.00031 -0.00004 -0.00033 -0.00100  0.01059
    P13      X    -0.00002  0.00001  0.00000  0.00001 -0.00001 -0.00002
    P13      Y    -0.00001  0.00005 -0.00003  0.00004  0.00000 -0.00000
    P13      Z    -0.00010 -0.00010  0.00008 -0.00004  0.00002 -0.00001
    P14      X     0.00004 -0.00002 -0.00002 -0.00000  0.00001  0.00001
    P14      Y     0.00010 -0.00007 -0.00007 -0.00004  0.00001 -0.00002
    P14      Z    -0.00001  0.00006  0.00003  0.00004 -0.00004 -0.00001
    C15      X     0.00045  0.00053 -0.00060  0.00042  0.00000  0.00001
    C15      Y     0.00023  0.00085 -0.00021  0.00047  0.00001 -0.00000
    C15      Z     0.00116  0.00097 -0.00163  0.00091 -0.00001  0.00002
    C16      X    -0.00050  0.00051  0.00049  0.00038 -0.00000 -0.00000
    C16      Y    -0.00132  0.00081  0.00156  0.00079 -0.00003  0.00001
    C16      Z    -0.00044  0.00082  0.00024  0.00048  0.00001  0.00000
    H17      X     0.00003 -0.00002 -0.00003 -0.00003  0.00032  0.00010
    H17      Y     0.00001  0.00007  0.00001  0.00005  0.00001 -0.00008
    H17      Z    -0.00003  0.00003 -0.00001  0.00004  0.00012 -0.00040
    H18      X    -0.00002 -0.00002  0.00000 -0.00001 -0.00144 -0.00028
    H18      Y    -0.00005 -0.00006 -0.00010 -0.00017  0.00069 -0.00021
    H18      Z    -0.00010  0.00007  0.00010  0.00007  0.00144 -0.00040
    C19      X    -0.00003 -0.00011  0.00006 -0.00005  0.00001 -0.00000
    C19      Y    -0.00018 -0.00028  0.00018 -0.00010 -0.00004  0.00001
    C19      Z    -0.00011 -0.00021  0.00013 -0.00007 -0.00004  0.00001
    C20      X    -0.00009 -0.00011  0.00008 -0.00003 -0.00001  0.00003
    C20      Y    -0.00047 -0.00073  0.00049 -0.00026  0.00005  0.00002
    C20      Z    -0.00041 -0.00065  0.00043 -0.00021  0.00007  0.00001
    C21      X     0.00050 -0.00060 -0.00036 -0.00019 -0.00000 -0.00001
    C21      Y     0.00046 -0.00054 -0.00033 -0.00015  0.00002 -0.00001
    C21      Z     0.00044 -0.00049 -0.00031 -0.00016  0.00002 -0.00001
    C22      X     0.00014 -0.00014 -0.00009 -0.00004 -0.00003 -0.00004
    C22      Y     0.00010 -0.00016 -0.00009 -0.00006 -0.00002 -0.00002
    C22      Z     0.00016 -0.00020 -0.00012 -0.00008 -0.00002 -0.00002
    H23      X     0.00034  0.00073 -0.00047  0.00031  0.00016 -0.00000
    H23      Y     0.00158  0.00226 -0.00143  0.00067  0.00042  0.00002
    H23      Z     0.00127  0.00221 -0.00135  0.00071  0.00042 -0.00004
    H24      X    -0.00136  0.00138  0.00088  0.00038  0.00026  0.00039
    H24      Y    -0.00123  0.00162  0.00099  0.00058  0.00021  0.00009
    H24      Z    -0.00133  0.00141  0.00093  0.00046  0.00022  0.00019
    H25      X    -0.00622  0.00683  0.00426  0.00202  0.00002  0.00007
    H25      Y    -0.00717  0.00788  0.00496  0.00243  0.00001  0.00012
    H25      Z    -0.00553  0.00613  0.00388  0.00193 -0.00009  0.00008
    H26      X     0.00151  0.00226 -0.00155  0.00084  0.00003 -0.00010
    H26      Y     0.00543  0.00800 -0.00535  0.00267 -0.00037 -0.00010
    H26      Z     0.00601  0.00876 -0.00581  0.00287 -0.00054  0.00011
    C27      X    -0.00109  0.00145  0.00180  0.00166 -0.00000  0.00000
    C27      Y     0.03552 -0.03845 -0.02772 -0.01594  0.00001 -0.00000
    C27      Z    -0.03081  0.03414  0.02685  0.01726 -0.00002  0.00001
    H28      X     0.01737 -0.01904 -0.01473 -0.00937  0.00000  0.00000
    H28      Y    -0.40698  0.44074  0.32042  0.18698 -0.00012  0.00002
    H28      Z     0.36805 -0.39914 -0.29294 -0.17313  0.00011 -0.00004
    C29      X    -0.00188 -0.00252  0.00119 -0.00010  0.00000  0.00000
    C29      Y     0.02632  0.03896 -0.03164  0.02005 -0.00003  0.00001
    C29      Z    -0.02644 -0.03837  0.02868 -0.01627  0.00003 -0.00001
    H30      X     0.01774  0.02565 -0.01850  0.01002 -0.00003 -0.00000
    H30      Y    -0.31614 -0.45946  0.35048 -0.20535  0.00031 -0.00006
    H30      Z     0.30247  0.43909 -0.33203  0.19215 -0.00029  0.00003
    C31      X    -0.01297  0.00521 -0.01543 -0.01778  0.00000 -0.00000
    C31      Y    -0.03681  0.01671 -0.04072 -0.05140 -0.00000 -0.00000
    C31      Z    -0.00884  0.00198 -0.01305 -0.01146  0.00000 -0.00000
    H32      X     0.15468 -0.06650  0.16890  0.19887 -0.00001  0.00002
    H32      Y     0.43572 -0.18959  0.47212  0.56122 -0.00001  0.00005
    H32      Z     0.10867 -0.04526  0.12172  0.13890 -0.00001  0.00002
    C33      X     0.01347  0.00987  0.01547 -0.02023  0.00000 -0.00000
    C33      Y     0.00659  0.00320  0.01026 -0.00879  0.00000 -0.00000
    C33      Z     0.03402  0.02630  0.03685 -0.05191  0.00000 -0.00000
    H34      X    -0.15988 -0.11994 -0.17047  0.22481 -0.00003  0.00002
    H34      Y    -0.07844 -0.05720 -0.08681  0.10899 -0.00002  0.00002
    H34      Z    -0.40327 -0.30364 -0.42708  0.56785 -0.00005  0.00005
    C35      X     0.00035 -0.00038 -0.00024 -0.00009  0.00000  0.00001
    C35      Y     0.00035 -0.00039 -0.00025 -0.00012 -0.00000 -0.00001
    C35      Z     0.00038 -0.00041 -0.00026 -0.00010 -0.00000  0.00001
    H36      X    -0.00357  0.00390  0.00253  0.00125  0.00002  0.00004
    H36      Y    -0.00529  0.00576  0.00366  0.00164  0.00003  0.00010
    H36      Z    -0.00451  0.00490  0.00316  0.00151  0.00002  0.00006
    H37      X    -0.00149  0.00153  0.00095  0.00019 -0.00004 -0.00010
    H37      Y     0.00096 -0.00089 -0.00058 -0.00011  0.00001  0.00006
    H37      Z    -0.00121  0.00117  0.00074  0.00011 -0.00001 -0.00006
    C38      X     0.00008 -0.00005 -0.00004 -0.00001 -0.00000 -0.00002
    C38      Y     0.00009 -0.00009 -0.00006 -0.00003 -0.00000 -0.00003
    C38      Z     0.00009 -0.00008 -0.00006 -0.00001 -0.00000 -0.00002
    H39      X    -0.00084  0.00078  0.00054  0.00017  0.00001  0.00013
    H39      Y    -0.00097  0.00091  0.00063  0.00018  0.00003  0.00007
    H39      Z    -0.00135  0.00131  0.00089  0.00031  0.00004  0.00028
    H40      X    -0.00012  0.00013  0.00008  0.00010  0.00001  0.00009
    H40      Y    -0.00012  0.00027  0.00013  0.00020  0.00003  0.00013
    H40      Z     0.00010 -0.00024 -0.00012 -0.00017 -0.00002 -0.00001
    C41      X    -0.00003 -0.00005  0.00004 -0.00001 -0.00001 -0.00000
    C41      Y    -0.00010 -0.00012  0.00008 -0.00002 -0.00004  0.00000
    C41      Z    -0.00010 -0.00012  0.00009 -0.00004 -0.00003  0.00000
    H42      X     0.00054  0.00070 -0.00047  0.00016 -0.00006  0.00001
    H42      Y     0.00129  0.00164 -0.00112  0.00042  0.00031  0.00000
    H42      Z     0.00092  0.00114 -0.00079  0.00026  0.00014 -0.00003
    H43      X    -0.00012 -0.00018  0.00012 -0.00010  0.00004 -0.00001
    H43      Y    -0.00002 -0.00017  0.00010 -0.00012  0.00009 -0.00005
    H43      Z     0.00022  0.00048 -0.00026  0.00030 -0.00014  0.00009
    C44      X    -0.00016 -0.00023  0.00015 -0.00007 -0.00002  0.00000
    C44      Y    -0.00052 -0.00074  0.00048 -0.00019  0.00001 -0.00000
    C44      Z    -0.00047 -0.00069  0.00046 -0.00021  0.00001 -0.00001
    H45      X    -0.00089 -0.00121  0.00077 -0.00024  0.00006  0.00002
    H45      Y     0.00219  0.00291 -0.00185  0.00048 -0.00005 -0.00007
    H45      Z    -0.00050 -0.00059  0.00040 -0.00013 -0.00004  0.00004
    H46      X     0.00294  0.00420 -0.00280  0.00124  0.00011  0.00001
    H46      Y     0.00611  0.00879 -0.00599  0.00290  0.00007  0.00004
    H46      Z     0.00656  0.00944 -0.00631  0.00288  0.00007  0.00004
    C47      X    -0.00003 -0.00008  0.00006 -0.00005 -0.00000 -0.00000
    C47      Y    -0.00070 -0.00099  0.00065 -0.00030 -0.00000 -0.00000
    C47      Z    -0.00067 -0.00098  0.00063 -0.00031  0.00001 -0.00001
    H48      X    -0.00061 -0.00089  0.00055 -0.00028  0.00004 -0.00005
    H48      Y    -0.00081 -0.00109  0.00065 -0.00028  0.00005 -0.00003
    H48      Z     0.00272  0.00388 -0.00252  0.00119 -0.00009  0.00009
    H49      X    -0.00150 -0.00181  0.00114 -0.00031 -0.00002  0.00006
    H49      Y     0.00211  0.00264 -0.00168  0.00049  0.00003 -0.00005
    H49      Z    -0.00059 -0.00069  0.00042 -0.00011  0.00001  0.00002
    H50      X     0.00243  0.00356 -0.00227  0.00106 -0.00000  0.00001
    H50      Y     0.00734  0.01067 -0.00689  0.00349 -0.00002  0.00005
    H50      Z     0.00615  0.00889 -0.00571  0.00283 -0.00002  0.00004
    C51      X    -0.00004 -0.00004  0.00003  0.00000  0.00025  0.00000
    C51      Y    -0.00013 -0.00017  0.00012 -0.00005  0.00071 -0.00000
    C51      Z    -0.00011 -0.00010  0.00007 -0.00004  0.00059 -0.00001
    H52      X    -0.00017 -0.00026  0.00019 -0.00007  0.00041  0.00005
    H52      Y     0.00045  0.00077 -0.00055  0.00024 -0.00011 -0.00002
    H52      Z    -0.00025 -0.00040  0.00029 -0.00016  0.00111  0.00001
    H53      X    -0.00015 -0.00030  0.00019 -0.00025  0.00075 -0.00007
    H53      Y    -0.00010 -0.00013  0.00010 -0.00010  0.00052 -0.00001
    H53      Z     0.00024  0.00033 -0.00020  0.00032 -0.00112  0.00013
    H54      X     0.00091  0.00114 -0.00079  0.00034 -0.00306  0.00005
    H54      Y     0.00161  0.00190 -0.00133  0.00058 -0.01083  0.00001
    H54      Z     0.00157  0.00185 -0.00130  0.00054 -0.01029 -0.00003
    C55      X     0.00006 -0.00008 -0.00004 -0.00004  0.00000  0.00001
    C55      Y     0.00011 -0.00008 -0.00005 -0.00002  0.00002 -0.00000
    C55      Z     0.00005 -0.00007 -0.00003 -0.00001  0.00001  0.00001
    H56      X    -0.00001  0.00023  0.00007  0.00008  0.00008 -0.00001
    H56      Y     0.00009 -0.00028 -0.00013 -0.00013 -0.00005  0.00005
    H56      Z    -0.00001  0.00027  0.00010  0.00013  0.00008  0.00001
    H57      X    -0.00023  0.00032  0.00018  0.00027  0.00001  0.00015
    H57      Y    -0.00022  0.00021  0.00013  0.00019 -0.00000  0.00020
    H57      Z     0.00029 -0.00039 -0.00023 -0.00032  0.00001 -0.00004
    H58      X    -0.00080  0.00075  0.00046  0.00019 -0.00016 -0.00043
    H58      Y    -0.00144  0.00142  0.00089  0.00037 -0.00016 -0.00026
    H58      Z    -0.00119  0.00118  0.00075  0.00033 -0.00011  0.00004
    C59      X     0.00069 -0.00072 -0.00044 -0.00021 -0.00000  0.00002
    C59      Y     0.00052 -0.00058 -0.00034 -0.00019 -0.00001  0.00000
    C59      Z     0.00042 -0.00047 -0.00030 -0.00015  0.00000 -0.00000
    H60      X    -0.00162  0.00178  0.00103  0.00055  0.00005 -0.00001
    H60      Y    -0.00279  0.00300  0.00171  0.00086  0.00007 -0.00007
    H60      Z     0.00174 -0.00183 -0.00099 -0.00050 -0.00002  0.00006
    H61      X    -0.00157  0.00140  0.00091  0.00014 -0.00003 -0.00008
    H61      Y     0.00131 -0.00115 -0.00073 -0.00012  0.00004  0.00010
    H61      Z    -0.00077  0.00073  0.00046  0.00009 -0.00002 -0.00002
    H62      X    -0.00514  0.00566  0.00346  0.00187  0.00002 -0.00003
    H62      Y    -0.00485  0.00531  0.00321  0.00160  0.00002  0.00002
    H62      Z    -0.00606  0.00671  0.00410  0.00213  0.00005  0.00005
  
  Number of imaginary frequencies:   1
   
  Writing vibrational animation data to 5RR-Me-DuPHOSpro-SfromJCTCSI_isomer4.vib
  Writing vibrational spectrum data to 5RR-Me-DuPHOSpro-SfromJCTCSI_isomer4_vib.spm
  rotational symmetry number:  1

  rotational temperatures (K):      0.008620      0.007398      0.005677
   
    1 vibrational frequencies below  10.0 cm-1 not included in zero-point
  energy or thermochemical analysis.  Set freqcut to change the frequency
  cutoff value.

  vibrational temperatures:
       mode:      2        3        4        5        6        7
  temp. (K):    34.59    76.25    78.23    85.43   101.48   109.94
   
       mode:      8        9       10       11       12       13
  temp. (K):   119.88   139.58   156.39   156.69   182.24   187.59
   
       mode:     14       15       16       17       18       19
  temp. (K):   198.93   208.44   226.05   250.25   251.27   282.64
   
       mode:     20       21       22       23       24       25
  temp. (K):   304.32   311.76   325.94   339.73   346.18   346.99
   
       mode:     26       27       28       29       30       31
  temp. (K):   354.74   359.69   364.06   367.70   388.40   406.02
   
       mode:     32       33       34       35       36       37
  temp. (K):   477.08   481.55   494.32   520.77   528.34   543.92
   
       mode:     38       39       40       41       42       43
  temp. (K):   549.09   579.12   581.24   608.62   654.71   659.32
   
       mode:     44       45       46       47       48       49
  temp. (K):   666.05   693.27   724.08   737.65   765.71   778.91
   
       mode:     50       51       52       53       54       55
  temp. (K):   789.48   819.50   831.14   861.35   883.41   889.62
   
       mode:     56       57       58       59       60       61
  temp. (K):   894.02   911.47   959.66   986.92  1011.38  1070.05
   
       mode:     62       63       64       65       66       67
  temp. (K):  1071.08  1075.52  1123.50  1195.70  1200.89  1201.74
   
       mode:     68       69       70       71       72       73
  temp. (K):  1233.59  1234.07  1295.60  1298.33  1341.88  1351.47
   
       mode:     74       75       76       77       78       79
  temp. (K):  1356.45  1360.18  1364.11  1422.06  1440.19  1441.17
   
       mode:     80       81       82       83       84       85
  temp. (K):  1445.87  1448.53  1460.90  1479.34  1480.89  1484.38
   
       mode:     86       87       88       89       90       91
  temp. (K):  1491.45  1527.28  1533.23  1545.95  1558.35  1579.74
   
       mode:     92       93       94       95       96       97
  temp. (K):  1581.09  1585.22  1587.08  1622.56  1639.45  1642.61
   
       mode:     98       99      100      101      102      103
  temp. (K):  1643.52  1675.68  1705.92  1706.80  1732.84  1734.56
   
       mode:    104      105      106      107      108      109
  temp. (K):  1762.58  1766.04  1819.56  1843.11  1851.62  1855.67
   
       mode:    110      111      112      113      114      115
  temp. (K):  1863.59  1866.41  1894.10  1898.47  1907.02  1911.21
   
       mode:    116      117      118      119      120      121
  temp. (K):  1919.30  1960.02  1964.83  1966.53  1967.78  1971.71
   
       mode:    122      123      124      125      126      127
  temp. (K):  2013.66  2057.22  2060.11  2061.79  2062.29  2113.53
   
       mode:    128      129      130      131      132      133
  temp. (K):  2149.33  2150.25  2156.91  2160.46  2161.25  2166.97
   
       mode:    134      135      136      137      138      139
  temp. (K):  2168.44  2169.79  2171.15  2173.07  2175.79  2176.60
   
       mode:    140      141      142      143      144      145
  temp. (K):  2177.86  2179.42  2211.55  2321.02  2344.03  2430.24
   
       mode:    146      147      148      149      150      151
  temp. (K):  2777.72  3017.10  3338.62  4365.59  4366.40  4371.66
   
       mode:    152      153      154      155      156      157
  temp. (K):  4377.14  4386.02  4388.81  4390.45  4393.07  4393.96
   
       mode:    158      159      160      161      162      163
  temp. (K):  4396.73  4400.26  4403.36  4450.97  4454.09  4459.72
   
       mode:    164      165      166      167      168      169
  temp. (K):  4462.10  4480.39  4486.20  4490.28  4492.99  4494.15
   
       mode:    170      171      172      173      174      175
  temp. (K):  4509.38  4521.42  4533.56  4534.75  4561.15  4596.50
   
       mode:    176      177      178      179      180
  temp. (K):  4603.67  4617.39  4631.93  4707.88  5163.85
   
   
  Thermodynamic properties calculated assuming an ideal gas

  In the table below, the units for temperature
  are kelvins, the units for U, H, and G are
  kJ/mol and the units for Cv and S are J/(mol K)

  The zero point energy (ZPE):   1367.462 kJ/mol
  is not included in U, H, or G in the table below
  
 
  =============================================================================
  Thermodynamic properties for P =     1.00 atm, calculated at   1 temperatures


  T =   298.15 K, P =     1.00 atm
   
                  U         Cv          S          H          G        ln(Q)
              =========  =========  =========  =========  =========  =========
  trans.          3.718     12.472    186.429      6.197    -49.386   19.92225
  rot.            3.718     12.472    149.948      3.718    -40.988   16.53452
  vib.           73.159    476.144    463.019     73.159    -64.889   26.17610
  elec.           0.000      0.000      0.000      0.000      0.000    0.00000
  ----------------------------------------------------------------------------
  total          80.596    501.088    799.395     83.075   -155.264   62.63286
   
   Total internal energy, Utot(SCFE + ZPE + U):   -1835.082122 hartrees
              Total enthalpy, Htot (Utot + pV):   -1835.081178 hartrees
    Total Gibbs free energy, Gtot (Htot - T*S):   -1835.171957 hartrees
   
  Peak memory usage:   1682 Mb
  
  end of program freq
   
 Time(freq)  user:        1.6  user+sys:        1.6  wallclock:        2.8

 Total cpu seconds     user:   21340.442   user+sys:   21340.442
  
 Total elapsed time:    7228 seconds

Job 5RR-Me-DuPHOSpro-SfromJCTCSI_isomer4 completed on seskscpn119.prim.scp at Wed Oct 18 12:21:31 2023
