Job 6RR-Me-BPEpro-RConformation1fromJCTCSI_isomer5 started on seskscpn120.prim.scp at Wed Oct 18 10:21:03 2023
jobid: seskscpn324-0-652fb16f

  +--------------------------------------------------------------------+
  |  Jaguar version 10.6, release  12                                  |
  |                                                                    |
  |  Copyright Schrodinger, Inc.                                       |
  |  All Rights Reserved.                                              |
  |                                                                    |
  |  The following have contributed to Jaguar (listed alphabetically): |
  |  Mike Beachy, Art Bochevarov, Dale Braden, Yixiang Cao,            |
  |  Alan Chien, Chris Cortis, Rich Friesner, Bill Goddard,            |
  |  Hod Greeley, Tom Hughes, Leif Jacobson, Jean-Marc Langlois,       |
  |  Daniel Levine, Daniel Mainz, Rob Murphy, Dean Philipp,            |
  |  Tom Pollard, Murco Ringnalda, Mark Watson, Haoyu Yu.              |
  |                                                                    |
  |  Use of this program should be acknowledged in publications as:    |
  |                                                                    |
  |  Jaguar, version 10.6, Schrodinger, Inc., New York, NY, 2019.      |
  |                                                                    |
  |  A. D. Bochevarov, E. Harder, T. F. Hughes, J. R. Greenwood,       |
  |  D. A. Braden, D. M. Philipp, D. Rinaldo, M. D. Halls,             |
  |  J. Zhang, R. A. Friesner, "Jaguar: A High-Performance Quantum     |
  |  Chemistry Software Program with Strengths in Life and Materials   |
  |  Sciences", Int. J. Quantum Chem., 2013, 113(18), 2110-2142.       |
  +--------------------------------------------------------------------+
  
  start of program pre
  
  Job name: 6RR-Me-BPEpro-RConformation1fromJCTCSI_isomer5
  Executables used: /opt/scp/software/schrodinger/2019-4/jaguar-v10.6/bin/Linux-x86_64
  Temporary files : /scratch/kzdq760/6RR-Me-BPEpro-RConformation1fromJCTCSI_isomer5#seskscpn324-0-652fb16f
  Maestro file (input):  6RR-Me-BPEpro-RConformation1fromJCTCSI_isomer5.mae
  Maestro file (output): 6RR-Me-BPEpro-RConformation1fromJCTCSI_isomer5.01.mae
  
 Contents of input file: &gen section only
 ----------------Contents start----------------
&gen
isymm=0
basis=LACVP**
gdftgrad=-13
gdftmed=-13
icanorb=1
molchg=1
gdftfine=-13
dftname=B3LYP
eunit=2
ifreq=1
ncanorb=522
iacc=1
&
 -----------------Contents end-----------------
 
  basis set:             lacvp**                         
  net molecular charge:    1
  multiplicity:            1
  
  keygrid settings 
    wispc.....   7.500E-01
    ldens.....   0
    denspc....   7.500E-01
  
   grid     daf set  nls  grid set  Q type
  ------    -------  ---  --------  ------
  coarse       1      1       1        1
  medium       2      2       2        1
  fine         3      2       3        0
  ultrafine    4      2       4        1
  charge       0      1       0        1
  gradient     5      2       4        1
  density      0      1       0        0
  DFT-fine     0      1     -13        0
  DFT-med.     0      1     -13        0
  DFT-grad     0      1     -13        0
  DFT-der2     0      1      -8        0
  DFT-cphf     0      1      -9        0
  LMP2-enrg    4      2       4        1
  LMP2-grad    5      2       2        1
  DFT-cphf2    0      1     -15        0
  PBF-dens     0      1       0        0
  plotting     0      1       0        0
  Rel-grad     0      1     -17        0
  
  idftgrdm  100
  ndftgrdm   50    0    0
  idftgrdf  111
  ndftgrdf   85    0    0
  idftgrdg  111
  ndftgrdg   80    3    0
  idftgrdu  433
  ndftgrdu  105    0    0
  idftgrdd  433
  ndftgrdd  105    0    0
  idftgrdc  433
  ndftgrdc   26    0    0
  idftgrdp  433
  ndftgrdp   18    0    0
  
  Using up to   4 threads per process
  
  This run will use ECP on 1 atom
  number of basis functions....          522
  
 Input geometry:
                                   angstroms
  atom               x                 y                 z
  Rh1           0.0000000000      0.0000000000      0.0000000000 
  O2            0.0000000000      0.0000000000      2.2287800000 
  C3            1.1316500000      0.0000000000      2.7494100000 
  N4            2.2657300000     -0.0925200000      2.0401400000 
  C5            2.2313300000     -0.3431100000      0.6201900000 
  C6            1.6613100000     -1.5685400000      0.1765900000 
  C7            3.1774400000      0.3766200000     -0.1652600000 
  N8            3.9711800000      0.9480800000     -0.8000000000 
  H9            1.4775100000     -2.3329900000      0.9256300000 
  H10           1.9429200000     -1.9417800000     -0.8015300000 
  H11           3.1582500000     -0.0734100000      2.5214200000 
  H12           1.2499500000      0.0834000000      3.8356000000 
  P13          -0.2707900000      0.1301700000     -2.2678900000 
  P14          -0.5713200000      2.3345400000      0.0546000000 
  C15          -1.3323300000      1.6277900000     -2.5848400000 
  C16          -0.9441900000      2.8254100000     -1.7083100000 
  H17          -1.5538900000     -0.1555000000     -0.1071600000 
  H18          -0.0433300000     -1.6102600000     -0.0982600000 
  C19          -1.0920700000     -1.2549200000     -3.2433800000 
  C20           1.2638400000      0.2270100000     -3.3495400000 
  C21          -2.0818300000      2.6258200000      1.1312200000 
  C22           0.3950600000      3.8089300000      0.7326800000 
  C23          -0.3962900000      4.2374700000      1.9882500000 
  H24          -0.1534100000      5.2714500000      2.2555000000 
  H25          -0.1022200000      3.6095400000      2.8399900000 
  C26          -1.8908600000      4.0497900000      1.6957900000 
  H27          -2.5059000000      4.1932500000      2.5906800000 
  H28          -2.2244400000      4.7913200000      0.9571600000 
  C29           0.8648900000     -0.5536600000     -4.6227800000 
  H30           1.7600500000     -0.8532100000     -5.1780400000 
  H31           0.2811100000      0.0969300000     -5.2879700000 
  C32           0.0196300000     -1.7593100000     -4.1925400000 
  H33           0.6497800000     -2.4886900000     -3.6655300000 
  H34          -0.4197100000     -2.2816500000     -5.0484200000 
  C35          -3.4411600000      2.3670900000      0.4768400000 
  H36          -3.5345500000      1.3341900000      0.1272700000 
  H37          -3.6254700000      3.0401600000     -0.3675200000 
  H38          -4.2402700000      2.5367200000      1.2060400000 
  C39           1.8913700000      3.5950600000      0.9636200000 
  H40           2.0717700000      2.8163000000      1.7113800000 
  H41           2.3464100000      4.5202400000      1.3330500000 
  H42           2.4189600000      3.3085400000      0.0501000000 
  C43           1.8324100000      1.6255200000     -3.6094400000 
  H44           2.1744900000      2.1060100000     -2.6893100000 
  H45           1.1060600000      2.2758000000     -4.1085000000 
  H46           2.7029700000      1.5455100000     -4.2684800000 
  C47          -1.7842000000     -2.3540900000     -2.4361400000 
  H48          -2.5662500000     -1.9571700000     -1.7834400000 
  H49          -1.0718000000     -2.8994900000     -1.8091700000 
  H50          -2.2481500000     -3.0739600000     -3.1184700000 
  H51          -1.9448400000      1.9064000000      1.9489500000 
  H52           2.0225100000     -0.3556000000     -2.8116900000 
  H53          -1.8467800000     -0.7352200000     -3.8500900000 
  H54           0.2634400000      4.5868500000     -0.0324400000 
  H55          -1.2900200000      1.8864900000     -3.6489100000 
  H56          -2.3577300000      1.3076000000     -2.3704700000 
  H57          -1.7244900000      3.5936100000     -1.7324500000 
  H58          -0.0284100000      3.2907200000     -2.0874200000 
   
  principal moments of inertia:
        amu*angstrom^2:     2036.40051     2961.17548     3390.01326
                g*cm^2: 3.38152217E-37 4.91714695E-37 5.62924876E-37
   
  rotational constants:
               cm^(-1):      0.00827815      0.00569288      0.00497273
                   GHz:      0.24817270      0.17066838      0.14907877
   
  Molecular weight:     459.12 amu
   
  Stoichiometry: RhC18P2N2H34O
  Molecular Point Group: C1      
  Point Group used: C1 (symmetry turned off)
  
  nuclear repulsion energy.......    3040.428971973 hartrees
  
  Detected an organometallic with only one TM atom. 
  
  Oxidation state on metal       1 is     3
  Formal multiplet on metal      1 is     1
  Formal charge on ligand        4 is    -1
  Formal multiplet on ligand     4 is     1
  Formal charge on ligand        5 is    -1
  Formal multiplet on ligand     5 is     1
  
 
  Will use High-Quality Initial guess for organometallics
       including d-d repulsion (iguess=30)
 
 Non-default options chosen:
   SCF calculation type: DFT(b3lyp)                  
   DFT=Becke_3_Parameter/HF+Slater+Becke88+VWN+LYP (B3LYP)
   Vibrational frequencies and related properties will be computed
      from analytic second derivatives
   IR intensities will be computed
   Thermochemical properties will be computed
   Thermochemical data will be printed in Joules
   Molecular symmetry not used
   Highest accuracy cutoffs used in SCF
  
 Temporary integer options set:
     21= -1  73=  2
  
   Fixing number of canonical orbitals to remain constant.
   Number of canonical orbitals to use:   522
  
  Peak memory usage:   1468 Mb
  
  end of program pre
   
 Time(pre)  user:        2.1  user+sys:        2.1  wallclock:        1.3
  
  start of program onee
  
  smallest eigenvalue of S:    1.074E-03
  Set cut 20/10 to   1.073181846502781E-003
  number of canonical orbitals.....          522
  Peak memory usage:   1509 Mb
  
  end of program onee
   
 Time(onee)  user:        2.5  user+sys:        2.5  wallclock:        0.8
  
  start of program hfig
  
  initial wavefunction generated automatically from atomic wavefunctions
  Only one state below 0.010000
  Skip d-d repulsion considerations 
 
  Irreducible     Total no   No of occupied orbitals 
  representation  orbitals   Shell_1  Shell_2    ...
  No Symm          522        105
  ------------------------
  Orbital occupation/shell    1.000
 
  Peak memory usage:   1436 Mb
  
  end of program hfig
   
 Time(hfig)  user:        1.1  user+sys:        1.1  wallclock:        0.6
  
  start of program probe
  
  Peak memory usage:   1426 Mb
  
  end of program probe
   
 Time(probe)  user:        1.0  user+sys:        1.0  wallclock:        0.3
  
  start of program grid
  
   grid     grid set  grid #  grid sym
  ------    --------  ------  --------
  coarse        0        0        1
  medium        2        1        1
  fine          0        0        1
  ultrafine     4        2        1
  charge        0        0        1
  gradient      4        2        1
  density       0        0        1
  DFT-fine    -13        3        1
  DFT-med.    -13        3        1
  DFT-grad    -13        3        1
  DFT-der2     -8        4        1
  DFT-cphf     -9        5        1
  LMP2-enrg     4        2        1
  LMP2-grad     2        1        1
  DFT-cphf2   -15        6        1
  PBF-dens      0        0        1
  plotting      0        0        1
  Rel-grad    -17        0        1
  
  number of gridpoints: 
     atom       Rh1       O2       C3       N4       C5       C6       C7
  grid # 1      300      116       83      102       93       83      101
  grid # 2      238      480      295      335      360      268      386
  grid # 3    35544    23820    15816    16030    15816    15816    15816
  grid # 4    32864    23252    13988    14170    13988    13988    13988
  grid # 5     1144      774      748      756      748      748      748
  grid # 6     2168      416      394      406      394      394      394
   
  number of gridpoints: 
     atom        N8       H9      H10      H11      H12      P13      P14
  grid # 1      118      112      108      116      117      610      613
  grid # 2      496      453      443      449      466      426      439
  grid # 3    16030    17074    17074    17074    17074    24032    24032
  grid # 4    14170    15058    15058    15058    15058    23016    23016
  grid # 5      756      786      786      786      786      722      722
  grid # 6      406      420      420      420      420      370      370
   
  number of gridpoints: 
     atom       C15      C16      H17      H18      C19      C20      C21
  grid # 1       81       81      100       99       79       79       79
  grid # 2      301      301      450      437      326      326      329
  grid # 3    15816    15816    17074    17074    15816    15816    15816
  grid # 4    13988    13988    15058    15058    13988    13988    13988
  grid # 5      748      748      786      786      748      748      748
  grid # 6      394      394      420      420      394      394      394
   
  number of gridpoints: 
     atom       C22      C23      H24      H25      C26      H27      H28
  grid # 1       79       92      112      108       92      112      109
  grid # 2      326      279      451      444      278      451      446
  grid # 3    15816    15816    17074    17074    15816    17074    17074
  grid # 4    13988    13988    15058    15058    13988    15058    15058
  grid # 5      748      748      786      786      748      786      786
  grid # 6      394      394      420      420      394      420      420
   
  number of gridpoints: 
     atom       C29      H30      H31      C32      H33      H34      C35
  grid # 1       91      112      109       92      108      112       81
  grid # 2      279      450      443      279      443      451      236
  grid # 3    15816    17074    17074    15816    17074    17074    15816
  grid # 4    13988    15058    15058    13988    15058    15058    13988
  grid # 5      748      786      786      748      786      786      748
  grid # 6      394      420      420      394      420      420      394
   
  number of gridpoints: 
     atom       H36      H37      H38      C39      H40      H41      H42
  grid # 1      104      105      110       79      105      110      105
  grid # 2      438      438      458      241      440      458      441
  grid # 3    17074    17074    17074    15816    17074    17074    17074
  grid # 4    15058    15058    15058    13988    15058    15058    15058
  grid # 5      786      786      786      748      786      786      786
  grid # 6      420      420      420      394      420      420      420
   
  number of gridpoints: 
     atom       C43      H44      H45      H46      C47      H48      H49
  grid # 1       82      105      103      109       79      108      106
  grid # 2      234      432      437      454      240      449      440
  grid # 3    15816    17074    17074    17074    15816    17074    17074
  grid # 4    13988    15058    15058    15058    13988    15058    15058
  grid # 5      748      786      786      786      748      786      786
  grid # 6      394      420      420      420      394      420      420
   
  number of gridpoints: 
     atom       H50      H51      H52      H53      H54      H55      H56
  grid # 1      110      102      103      104      104      102      101
  grid # 2      458      437      433      439      441      443      440
  grid # 3    17074    17074    17074    17074    17074    17074    17074
  grid # 4    15058    15058    15058    15058    15058    15058    15058
  grid # 5      786      786      786      786      786      786      786
  grid # 6      420      420      420      420      420      420      420
   
  number of gridpoints: 
     atom       H57      H58    total
  grid # 1      104      100     7019
  grid # 2      442      431    22824
  grid # 3    17074    17074  1004692
  grid # 4    15058    15058   894244
  grid # 5      786      786    45062
  grid # 6      420      420    25508
   
  Peak memory usage:   1452 Mb
  
  end of program grid
   
 Time(grid)  user:       93.4  user+sys:       93.4  wallclock:       25.1
  
  start of program rwr
  
  Peak memory usage:   1425 Mb
  
  end of program rwr
   
 Time(rwr)  user:       16.3  user+sys:       16.3  wallclock:        6.5
  
  start of program scf
  
 number of electrons..........        210
 number of alpha electrons....        105
 number of beta electrons.....        105
 number of orbitals, total....        522
 number of doubly-occ'd orbs..        105
 number of open shell orbs....          0
 number of occupied orbitals..        105
 number of virtual orbitals...        417
 number of hamiltonians.......          1
 number of shells.............          1
 SCF type: DFT=Becke_3_Parameter/HF+Slater+Becke88+VWN+LYP (B3LYP)
 Energy computed with NOPS off.
 Convergence Criterion:
    Energy (econv):       1.00E-05
    RMS density (dconv):  5.00E-06
  
       i  u  d  i  g                   
       t  p  i  c  r                                 RMS    maximum
       e  d  i  u  i                       energy  density   DIIS  
       r  t  s  t  d       total energy    change  change    error 
  
etot    1  N  N  1  U   -1678.51692769515           3.6E-03  9.6E-02
etot    2  N  Y  1  U   -1681.96068503883  3.4E+00  3.4E-03  5.9E-02
etot    3  N  Y  1  U   -1682.26597611505  3.1E-01  1.9E-03  9.6E-02
etot    4  N  Y  1  U   -1683.03968890595  7.7E-01  1.2E-03  2.7E-02
etot    5  N  Y  1  U   -1683.16347053386  1.2E-01  6.2E-04  1.5E-02
etot    6  N  Y  1  U   -1683.20894477023  4.5E-02  1.7E-04  5.2E-03
etot    7  N  Y  1  U   -1683.21465424344  5.7E-03  5.6E-05  3.4E-03
etot    8  N  Y  1  U   -1683.21561333866  9.6E-04  2.0E-05  7.7E-04
etot    9  N  Y  1  U   -1683.21568520636  7.2E-05  6.6E-06  1.2E-04
etot   10  N  Y  1  U   -1683.21569170063  6.5E-06  3.2E-06  6.8E-05
etot   11  N  N  1  U   -1683.21569315687  1.5E-06  0.0E+00  0.0E+00
  
  
 Energy components, in hartrees:
   (A)  Nuclear repulsion............    3040.42897197263
   (E)  Total one-electron terms.....   -8371.67246087637
   (I)  Total two-electron terms.....    3648.02779574686
   (J)    Coulomb....................    3838.60824165734
   (K)    Exchange+Correlation.......    -190.58044591047
   (L)  Electronic energy............   -4723.64466512950  (E+I)
   (N)  Total energy.................   -1683.21569315687  (A+L)
   (O)  Gas phase energy.............   -1683.21569315687
  
 SCFE: SCF energy: DFT(b3lyp)     -1683.21569315687 hartrees   iterations:  11
  
 
 HOMO energy:    -0.34124
 LUMO energy:    -0.17316
 
  Orbital energies (hartrees): 
   -77.23122   -77.21144   -19.29006   -14.52099   -14.44092   -10.43465
   -10.38524   -10.35975   -10.33537   -10.32405   -10.32027   -10.31627
   -10.31587   -10.31021   -10.30543   -10.29626   -10.29610   -10.29014
   -10.28871   -10.28560   -10.28299   -10.28262   -10.28029    -6.70928
    -6.69082    -4.87065    -4.87012    -4.86936    -4.85247    -4.85180
    -4.85006    -3.26358    -2.07088    -2.06377    -2.05484    -1.19499
    -1.08539    -1.00793    -0.95479    -0.94509    -0.92370    -0.90630
    -0.88344    -0.87741    -0.83233    -0.82544    -0.80889    -0.80122
    -0.76451    -0.75261    -0.74799    -0.74238    -0.72590    -0.71977
    -0.68522    -0.67804    -0.66095    -0.64938    -0.63739    -0.61579
    -0.59825    -0.58911    -0.58313    -0.58063    -0.57208    -0.56834
    -0.56187    -0.55539    -0.54771    -0.54351    -0.53862    -0.53726
    -0.52823    -0.52575    -0.51724    -0.51333    -0.51140    -0.51040
    -0.50625    -0.49168    -0.48666    -0.48030    -0.47687    -0.47634
    -0.46643    -0.46440    -0.45919    -0.45411    -0.44934    -0.44792
    -0.44439    -0.44208    -0.44066    -0.43934    -0.43643    -0.43188
    -0.42883    -0.42467    -0.42198    -0.41246    -0.40527    -0.39913
    -0.38927    -0.38351    -0.34124    -0.17316    -0.16270    -0.13224
    -0.11397    -0.08976    -0.08507    -0.08158    -0.07000    -0.06566
    -0.06196
 
  Peak memory usage:   2074 Mb
  
  end of program scf
   
 Time(scf)  user:      434.7  user+sys:      434.7  wallclock:      120.5
  
  start of program cutabab2
  
  Peak memory usage:   1820 Mb
  
  end of program cutabab2
   
 Time(cutabab2)  user:        1.7  user+sys:        1.7  wallclock:        0.7
  
  start of program der2a
  
  Peak memory usage:   1807 Mb
  
  end of program der2a
   
 Time(der2a)  user:       43.7  user+sys:       43.7  wallclock:       11.8
  
  start of program der2b
  
  Peak memory usage:   2228 Mb
  
  end of program der2b
   
 Time(der2b)  user:     2643.5  user+sys:     2643.5  wallclock:      664.7
  
  start of program der2nda
  
 
  Peak memory usage:    976 Mb
  
  end of program der2nda
   
 Time(der2nda)  user:       14.0  user+sys:       14.0  wallclock:       14.3
  
  start of program der2ndb
  
  Peak memory usage:   1877 Mb
  
  end of program der2ndb
   
 Time(der2ndb)  user:     3057.8  user+sys:     3057.8  wallclock:      779.8
  
  start of program rwr
  
  Peak memory usage:   1425 Mb
  
  end of program rwr
   
 Time(rwr)  user:       16.1  user+sys:       16.1  wallclock:        6.6
  
  start of program cphfa
  
      11  vectors produced in CPHF
  
     v    i  j  k  i  g
     e    t  c  c  c  r
     c    e  o  o  u  i
     t    r  r  r  t  d       RMS  
  
     1    1  5  2  6  M     5.0E-03
     1    2  5  2  6  M     4.6E-04
     1    3  0  0  6  M     2.4E-04
     1    4  0  0  6  M     9.1E-05
     1    5  0  0  6  M     3.7E-05
  
     v    i  j  k  i  g
     e    t  c  c  c  r
     c    e  o  o  u  i
     t    r  r  r  t  d       RMS  
  
     2    1  5  2  6  M     4.8E-03
     2    2  5  2  6  M     2.5E-04
     2    3  0  0  6  M     1.4E-04
     2    4  0  0  6  M     6.4E-05
     2    5  0  0  6  M     2.9E-05
  
     v    i  j  k  i  g
     e    t  c  c  c  r
     c    e  o  o  u  i
     t    r  r  r  t  d       RMS  
  
     3    1  5  2  6  M     4.8E-03
     3    2  5  2  6  M     2.5E-04
     3    3  0  0  6  M     1.4E-04
     3    4  0  0  6  M     5.7E-05
     3    5  0  0  6  M     2.9E-05
  
     v    i  j  k  i  g
     e    t  c  c  c  r
     c    e  o  o  u  i
     t    r  r  r  t  d       RMS  
  
     4    1  5  2  6  M     5.0E-03
     4    2  5  2  6  M     5.1E-04
     4    3  0  0  6  M     1.9E-04
     4    4  0  0  6  M     9.8E-05
     4    5  0  0  6  M     4.4E-05
  
     v    i  j  k  i  g
     e    t  c  c  c  r
     c    e  o  o  u  i
     t    r  r  r  t  d       RMS  
  
     5    1  5  2  6  M     5.2E-03
     5    2  5  2  6  M     4.4E-04
     5    3  0  0  6  M     2.0E-04
     5    4  0  0  6  M     8.3E-05
     5    5  0  0  6  M     4.6E-05
  
     v    i  j  k  i  g
     e    t  c  c  c  r
     c    e  o  o  u  i
     t    r  r  r  t  d       RMS  
  
     6    1  5  2  6  M     5.2E-03
     6    2  5  2  6  M     2.9E-04
     6    3  0  0  6  M     1.4E-04
     6    4  0  0  6  M     5.6E-05
     6    5  0  0  6  M     2.9E-05
  
     v    i  j  k  i  g
     e    t  c  c  c  r
     c    e  o  o  u  i
     t    r  r  r  t  d       RMS  
  
     7    1  5  2  6  M     5.0E-03
     7    2  5  2  6  M     3.5E-04
     7    3  0  0  6  M     1.3E-04
     7    4  0  0  6  M     5.2E-05
     7    5  0  0  6  M     2.8E-05
  
     v    i  j  k  i  g
     e    t  c  c  c  r
     c    e  o  o  u  i
     t    r  r  r  t  d       RMS  
  
     8    1  5  2  6  M     5.0E-03
     8    2  5  2  6  M     2.7E-04
     8    3  0  0  6  M     1.3E-04
     8    4  0  0  6  M     4.7E-05
  
     v    i  j  k  i  g
     e    t  c  c  c  r
     c    e  o  o  u  i
     t    r  r  r  t  d       RMS  
  
     9    1  5  2  6  M     4.9E-03
     9    2  5  2  6  M     2.9E-04
     9    3  0  0  6  M     1.4E-04
     9    4  0  0  6  M     5.3E-05
     9    5  0  0  6  M     2.6E-05
  
     v    i  j  k  i  g
     e    t  c  c  c  r
     c    e  o  o  u  i
     t    r  r  r  t  d       RMS  
  
    10    1  5  2  6  M     5.1E-03
    10    2  5  2  6  M     3.2E-04
    10    3  0  0  6  M     1.8E-04
    10    4  0  0  6  M     1.0E-04
    10    5  0  0  6  M     3.8E-05
  
     v    i  j  k  i  g
     e    t  c  c  c  r
     c    e  o  o  u  i
     t    r  r  r  t  d       RMS  
  
    11    1  5  2  6  M     5.0E-03
    11    2  5  2  6  M     1.8E-04
    11    3  0  0  6  M     1.4E-04
    11    4  0  0  6  M     5.2E-05
    11    5  0  0  6  M     2.0E-05
  
  
  Atomic Polar Tensors (au): Total
  =========================
  
  APT for atom Rh1     
  --------------------------------------
       -0.5816      -0.0927      -0.0151
       -0.2295      -0.4707      -0.1561
        0.0517      -0.1012      -0.1833
  --------------------------------------
  
  APT for atom O2      
  --------------------------------------
       -0.8283       0.0375      -0.2987
        0.0289      -0.1573       0.0609
       -0.3516      -0.0159      -1.0404
  --------------------------------------
  
  APT for atom C3      
  --------------------------------------
        1.3005      -0.0133       0.2529
       -0.1068       0.2071       0.0080
       -0.0246      -0.0223       0.6360
  --------------------------------------
  
  APT for atom N4      
  --------------------------------------
       -0.6631      -0.0461       0.0112
       -0.0343      -0.3491       0.0265
        0.2765      -0.0106      -0.3590
  --------------------------------------
  
  APT for atom C5      
  --------------------------------------
       -0.3849       0.2636      -0.0611
       -0.4000       0.3739      -0.0218
       -0.0287       0.0714       0.4577
  --------------------------------------
  
  APT for atom C6      
  --------------------------------------
        0.7592      -0.2999       0.2139
        0.1774       0.0558      -0.0272
        0.2304       0.0001       0.0939
  --------------------------------------
  
  APT for atom C7      
  --------------------------------------
        0.5104      -0.0036      -0.0515
        0.2598       0.0329      -0.0260
       -0.3489      -0.0088      -0.0546
  --------------------------------------
  
  APT for atom N8      
  --------------------------------------
       -0.4873       0.0315      -0.0215
       -0.1198      -0.2386      -0.0207
        0.1365      -0.0314      -0.2502
  --------------------------------------
  
  APT for atom H9      
  --------------------------------------
       -0.0315       0.0984      -0.0069
        0.0313       0.0456       0.0192
       -0.0035       0.0294       0.0282
  --------------------------------------
  
  APT for atom H10     
  --------------------------------------
        0.0450       0.0386       0.0019
        0.0314       0.0560       0.0093
        0.0122      -0.0039       0.0091
  --------------------------------------
  
  APT for atom H11     
  --------------------------------------
        0.2733      -0.0152       0.0620
        0.0357       0.2928      -0.0311
        0.0096      -0.0289       0.1402
  --------------------------------------
  
  APT for atom H12     
  --------------------------------------
        0.0522       0.0000      -0.1137
        0.0102       0.0912      -0.0281
       -0.0421      -0.0011      -0.0622
  --------------------------------------
  
  APT for atom P13     
  --------------------------------------
        0.7036       0.0225       0.0942
       -0.0795       0.8527       0.1228
        0.1489       0.2323       1.2849
  --------------------------------------
  
  APT for atom P14     
  --------------------------------------
        0.8713      -0.3041       0.0241
       -0.1672       0.9084       0.1901
        0.0610      -0.0016       0.7469
  --------------------------------------
  
  APT for atom C15     
  --------------------------------------
       -0.1065      -0.0448       0.0221
        0.0023      -0.0446       0.0638
       -0.1005      -0.1005      -0.3223
  --------------------------------------
  
  APT for atom C16     
  --------------------------------------
       -0.1476       0.1717       0.0300
        0.0159      -0.2713      -0.0408
        0.0352      -0.0126      -0.0688
  --------------------------------------
  
  APT for atom H17     
  --------------------------------------
       -0.3402       0.0173      -0.0622
       -0.0147       0.1348       0.0088
        0.0224       0.0307       0.1047
  --------------------------------------
  
  APT for atom H18     
  --------------------------------------
       -0.0216      -0.0174       0.0162
        0.2231      -0.2628       0.0066
        0.0371       0.0268       0.1677
  --------------------------------------
  
  APT for atom C19     
  --------------------------------------
       -0.0614       0.0787       0.0890
        0.0686       0.0465       0.1714
        0.0290       0.0408      -0.1162
  --------------------------------------
  
  APT for atom C20     
  --------------------------------------
       -0.0174      -0.0276      -0.2881
       -0.0409      -0.1439      -0.0653
       -0.0605      -0.0101      -0.1874
  --------------------------------------
  
  APT for atom C21     
  --------------------------------------
        0.0145      -0.1051      -0.0916
        0.0775      -0.2116      -0.0495
       -0.1441       0.0583      -0.0145
  --------------------------------------
  
  APT for atom C22     
  --------------------------------------
       -0.1585       0.2660       0.1117
        0.0978      -0.0537       0.0250
       -0.0435       0.1416      -0.0247
  --------------------------------------
  
  APT for atom C23     
  --------------------------------------
        0.0400      -0.0740      -0.0507
       -0.0003      -0.0022      -0.1230
       -0.0115       0.0570       0.1357
  --------------------------------------
  
  APT for atom H24     
  --------------------------------------
        0.0140      -0.0291      -0.0023
       -0.0404      -0.0931      -0.0793
        0.0098      -0.0945       0.0034
  --------------------------------------
  
  APT for atom H25     
  --------------------------------------
       -0.0083       0.0335      -0.0323
        0.0407      -0.0038       0.1121
       -0.0255       0.0411      -0.0467
  --------------------------------------
  
  APT for atom C26     
  --------------------------------------
       -0.0457       0.0766       0.0452
       -0.0735       0.1671       0.0482
        0.0641      -0.1444       0.0604
  --------------------------------------
  
  APT for atom H27     
  --------------------------------------
       -0.0294       0.0271       0.0745
        0.0377      -0.0109      -0.0540
        0.0971      -0.0665      -0.0523
  --------------------------------------
  
  APT for atom H28     
  --------------------------------------
        0.0143       0.0066      -0.0329
        0.0288      -0.0329       0.0368
       -0.0711       0.1045      -0.0398
  --------------------------------------
  
  APT for atom C29     
  --------------------------------------
        0.0497       0.0028       0.2707
       -0.0418       0.0749       0.0028
       -0.0033       0.0260       0.0895
  --------------------------------------
  
  APT for atom H30     
  --------------------------------------
       -0.0456       0.0052       0.0692
        0.0100       0.0303      -0.0580
        0.0602      -0.0368      -0.0654
  --------------------------------------
  
  APT for atom H31     
  --------------------------------------
       -0.0052       0.0420      -0.0917
        0.0362      -0.0474       0.0726
       -0.0280       0.0288      -0.0036
  --------------------------------------
  
  APT for atom C32     
  --------------------------------------
        0.0684      -0.1505      -0.0967
       -0.0370       0.0355       0.0108
        0.0403      -0.0627       0.0423
  --------------------------------------
  
  APT for atom H33     
  --------------------------------------
       -0.0204       0.0660      -0.0154
        0.0345      -0.0195       0.0462
       -0.0474       0.1028      -0.0077
  --------------------------------------
  
  APT for atom H34     
  --------------------------------------
        0.0265      -0.0325      -0.0129
       -0.0356      -0.0178      -0.0903
       -0.0273      -0.0956      -0.0593
  --------------------------------------
  
  APT for atom C35     
  --------------------------------------
        0.0177       0.0018      -0.0075
       -0.0066       0.0354      -0.0592
        0.1334      -0.0610       0.0484
  --------------------------------------
  
  APT for atom H36     
  --------------------------------------
        0.0853      -0.0113      -0.0292
       -0.0152      -0.0964      -0.0630
       -0.0481      -0.0602       0.0303
  --------------------------------------
  
  APT for atom H37     
  --------------------------------------
        0.0452      -0.0311       0.0012
        0.0177      -0.0129       0.0914
       -0.0580       0.0799      -0.0458
  --------------------------------------
  
  APT for atom H38     
  --------------------------------------
       -0.0864       0.0298       0.0655
        0.0439       0.0768      -0.0215
        0.0798      -0.0231      -0.0081
  --------------------------------------
  
  APT for atom C39     
  --------------------------------------
        0.0282       0.0724       0.0307
       -0.0607       0.0491      -0.0467
        0.0424      -0.0328       0.0248
  --------------------------------------
  
  APT for atom H40     
  --------------------------------------
        0.0075      -0.0125       0.0108
        0.0372      -0.0069       0.0998
       -0.0213       0.0998      -0.0179
  --------------------------------------
  
  APT for atom H41     
  --------------------------------------
       -0.0016      -0.0606      -0.0416
       -0.0693      -0.0703      -0.0602
       -0.0587      -0.0643       0.0530
  --------------------------------------
  
  APT for atom H42     
  --------------------------------------
       -0.0022       0.0192       0.0318
        0.0499       0.0937      -0.0204
        0.0471      -0.0366      -0.0446
  --------------------------------------
  
  APT for atom C43     
  --------------------------------------
        0.0217      -0.0821       0.0562
        0.0213       0.0710      -0.0816
        0.0199      -0.0283      -0.0068
  --------------------------------------
  
  APT for atom H44     
  --------------------------------------
        0.0656      -0.0188      -0.0247
       -0.0207      -0.0092      -0.0636
       -0.0325      -0.0637      -0.0354
  --------------------------------------
  
  APT for atom H45     
  --------------------------------------
       -0.0289       0.0853      -0.0852
        0.0257      -0.0157       0.0316
       -0.0446       0.0415       0.0453
  --------------------------------------
  
  APT for atom H46     
  --------------------------------------
       -0.0237      -0.0104       0.0994
        0.0041       0.0337       0.0041
        0.0870       0.0178       0.0102
  --------------------------------------
  
  APT for atom C47     
  --------------------------------------
        0.0376      -0.0163       0.0699
       -0.0125       0.0181      -0.0068
       -0.0328      -0.1017       0.0307
  --------------------------------------
  
  APT for atom H48     
  --------------------------------------
        0.0157       0.0429       0.0862
        0.0616       0.0256      -0.0252
        0.0942       0.0113       0.0041
  --------------------------------------
  
  APT for atom H49     
  --------------------------------------
       -0.0517       0.0549      -0.0817
        0.0322       0.0579       0.0586
       -0.0266       0.0715       0.0128
  --------------------------------------
  
  APT for atom H50     
  --------------------------------------
        0.0451      -0.0750      -0.0415
       -0.0837      -0.0445      -0.0561
       -0.0613      -0.0821      -0.0148
  --------------------------------------
  
  APT for atom H51     
  --------------------------------------
        0.0179       0.0081      -0.0048
       -0.0011      -0.0045       0.0044
       -0.0372       0.0549      -0.0253
  --------------------------------------
  
  APT for atom H52     
  --------------------------------------
       -0.0238       0.0313      -0.0390
        0.0375      -0.0272       0.0754
       -0.0060       0.0252      -0.0024
  --------------------------------------
  
  APT for atom H53     
  --------------------------------------
       -0.0246       0.0278      -0.0273
        0.0178      -0.0570      -0.0241
       -0.0555       0.0213      -0.0572
  --------------------------------------
  
  APT for atom H54     
  --------------------------------------
        0.0173      -0.0230      -0.0416
        0.0479      -0.1116       0.0329
        0.0095      -0.0241      -0.0666
  --------------------------------------
  
  APT for atom H55     
  --------------------------------------
        0.0814      -0.0079      -0.0525
        0.0146       0.0154       0.0241
       -0.0145      -0.0127      -0.0883
  --------------------------------------
  
  APT for atom H56     
  --------------------------------------
       -0.0228      -0.0326       0.0160
       -0.0090       0.0109      -0.0301
        0.0420       0.0125       0.0769
  --------------------------------------
  
  APT for atom H57     
  --------------------------------------
        0.0258       0.0529      -0.0343
        0.0763      -0.0554      -0.0362
       -0.0540       0.0110       0.0319
  --------------------------------------
  
  APT for atom H58     
  --------------------------------------
       -0.0054      -0.0745      -0.0000
       -0.0354       0.0496       0.0017
        0.0358       0.0011       0.0024
  --------------------------------------
  
  Peak memory usage:   1942 Mb
  
  end of program cphfa
   
 Time(cphfa)  user:     9829.4  user+sys:     9829.4  wallclock:     3641.5
  
  start of program freq
  
   
  Number of frequencies: 168
  harmonic frequencies in cm**-1, reduced masses in amu,
  force constants in mDyne/A, and
  normal modes in cartesian coordinates:         168
  IR intensities in km/mol
  
  vibration #            1        2        3        4        5        6
                  -------- -------- -------- -------- -------- --------
  frequencies      -623.17    29.30    44.23    50.11    57.85    70.54
  intensities        13.26     0.11     0.11     0.09     1.42     1.60
  reduc. mass         0.77     0.61     0.80     0.56     2.19     1.36
  force const         0.18     0.00     0.00     0.00     0.00     0.00
    Rh1      X    -0.00337 -0.01458  0.00648  0.00382  0.00585 -0.01195
    Rh1      Y    -0.01718 -0.00190 -0.00435  0.00256 -0.00737 -0.00786
    Rh1      Z    -0.00168  0.00288  0.00692  0.00018 -0.01184  0.01029
    O2       X     0.00174 -0.01905  0.00680 -0.01519 -0.04290  0.00584
    O2       Y    -0.00137  0.01240 -0.00937  0.02133 -0.04985 -0.03208
    O2       Z     0.00164  0.00282  0.00511  0.00036 -0.01247  0.00838
    C3       X    -0.00310 -0.01972  0.00610 -0.01941 -0.05510  0.01181
    C3       Y    -0.00005  0.00938 -0.01775  0.03292 -0.04759 -0.03571
    C3       Z     0.00057  0.00467  0.00655  0.00967  0.01288 -0.00485
    N4       X     0.00379 -0.01933  0.00661 -0.01340 -0.03799  0.00500
    N4       Y     0.00698 -0.00306 -0.02156  0.03298 -0.01605 -0.01398
    N4       Z     0.00523  0.00717  0.00791  0.01948  0.03544 -0.01960
    C5       X     0.03462 -0.01874  0.00756 -0.00032 -0.00319 -0.01195
    C5       Y    -0.01659 -0.01557 -0.01359  0.01936  0.01872  0.00993
    C5       Z     0.01134  0.00927  0.00662  0.02123  0.02802 -0.02341
    C6       X     0.05658 -0.03032  0.00451  0.00983  0.03523  0.00031
    C6       Y     0.05086 -0.01375 -0.00918  0.01251  0.01614  0.00640
    C6       Z     0.00670  0.01860 -0.00050  0.02734 -0.01338 -0.03243
    C7       X     0.00602 -0.00564  0.00854  0.00643 -0.01216 -0.04717
    C7       Y     0.01401 -0.03692 -0.00996  0.01432  0.07051  0.04671
    C7       Z    -0.00005  0.00552  0.01141  0.02454  0.06453 -0.03175
    N8       X     0.00414  0.00491  0.01034  0.01361 -0.01959 -0.08301
    N8       Y     0.00449 -0.05706 -0.00564  0.01025  0.12121  0.08360
    N8       Z    -0.00409  0.00064  0.01751  0.03001  0.10095 -0.04352
    H9       X    -0.20718 -0.04116  0.00394  0.00586  0.04444  0.02817
    H9       Y     0.08625 -0.00530 -0.01364  0.01842 -0.00825 -0.00757
    H9       Z    -0.03263  0.02456 -0.00518  0.03235 -0.03596 -0.03979
    H10      X    -0.09310 -0.03080  0.00210  0.02057  0.05940 -0.01034
    H10      Y     0.06347 -0.02524 -0.00317  0.00567  0.04929  0.02382
    H10      Z    -0.03600  0.02283 -0.00351  0.03304 -0.01911 -0.04216
    H11      X     0.00111 -0.02006  0.00615 -0.01730 -0.04877  0.01011
    H11      Y     0.00850 -0.00669 -0.02507  0.04152 -0.01497 -0.02064
    H11      Z     0.00894  0.00870  0.00885  0.02643  0.05538 -0.02878
    H12      X    -0.00027 -0.02101  0.00492 -0.02868 -0.08004  0.02350
    H12      Y     0.00299  0.01707 -0.02263  0.04405 -0.07220 -0.05738
    H12      Z     0.00041  0.00420  0.00704  0.00980  0.01751 -0.00443
    P13      X     0.00188 -0.00177 -0.00454  0.00450 -0.00219  0.00034
    P13      Y    -0.00170 -0.00396 -0.00743 -0.01298 -0.00265 -0.00674
    P13      Z    -0.00073  0.00163  0.00663 -0.00164 -0.01033  0.00842
    P14      X     0.00956 -0.00901  0.01226 -0.00054  0.01262 -0.00164
    P14      Y     0.01189 -0.00014  0.00019 -0.00030 -0.00535 -0.00343
    P14      Z     0.00154 -0.00839  0.00415 -0.01120 -0.00112  0.00497
    C15      X     0.00079 -0.03567 -0.00238  0.01894 -0.00833 -0.00087
    C15      Y    -0.00001 -0.02764 -0.00518 -0.00360 -0.00482 -0.00925
    C15      Z     0.00168  0.00318  0.01077 -0.01252  0.00042  0.00739
    C16      X    -0.00184 -0.05381  0.01218  0.02164 -0.00928  0.02130
    C16      Y     0.00292 -0.01588 -0.00449 -0.00244 -0.00626 -0.00828
    C16      Z     0.00041 -0.00421  0.00294 -0.01512  0.00219 -0.00149
    H17      X    -0.00891 -0.01568  0.00675  0.00433  0.00910 -0.01402
    H17      Y     0.15676  0.00622 -0.00304 -0.00108 -0.02001 -0.00685
    H17      Z     0.03619 -0.00171  0.01093 -0.00722 -0.02859  0.01265
    H18      X    -0.85931 -0.03359  0.00442  0.01016  0.05062 -0.00057
    H18      Y     0.13838 -0.00066 -0.00360  0.00170 -0.01095 -0.00915
    H18      Z    -0.08508  0.01173  0.00666  0.01045 -0.02668  0.00599
    C19      X    -0.00047  0.04076 -0.01773 -0.02069 -0.01223  0.02644
    C19      Y     0.00012 -0.01986 -0.00464 -0.00898 -0.00109 -0.02847
    C19      Z     0.00013 -0.01229  0.00981  0.00916 -0.00413  0.01658
    C20      X     0.00119  0.00291 -0.02171 -0.00995 -0.00937 -0.00034
    C20      Y     0.00002  0.04187  0.00155 -0.02657 -0.00777  0.01642
    C20      Z     0.00044  0.01343 -0.01456 -0.02072 -0.02161  0.00671
    C21      X     0.00160  0.02156  0.00361 -0.00904  0.03211 -0.01465
    C21      Y     0.00127  0.01225  0.01973 -0.01621  0.00395  0.04162
    C21      Z    -0.00023  0.03128 -0.01581 -0.01591  0.02287 -0.02328
    C22      X    -0.00295  0.01300  0.01181 -0.00979  0.02431  0.02519
    C22      Y     0.01090  0.00371  0.00742 -0.00667  0.00133 -0.02575
    C22      Z    -0.00191 -0.04829 -0.00466  0.00846 -0.02687  0.01559
    C23      X    -0.00082  0.05004 -0.03237  0.01966  0.03813  0.02534
    C23      Y     0.00275  0.01512  0.07235 -0.07496  0.02164 -0.01638
    C23      Z     0.00143 -0.02896 -0.05354  0.04915 -0.02543  0.01196
    H24      X    -0.00392  0.05993 -0.04390  0.02957  0.03980  0.05288
    H24      Y     0.00149  0.01660  0.08731 -0.09133  0.02679 -0.02633
    H24      Z     0.00909 -0.04366 -0.10109  0.10363 -0.04680  0.02551
    H25      X    -0.00029  0.07285 -0.05665  0.03224  0.04992 -0.00188
    H25      Y    -0.00169  0.02103  0.11893 -0.12528  0.03768 -0.03425
    H25      Z    -0.00161 -0.03244 -0.01096  0.00787 -0.01760  0.00825
    C26      X    -0.00064  0.04127 -0.02304  0.01380  0.03503  0.02395
    C26      Y     0.00083  0.01625  0.05050 -0.04930  0.01370  0.03090
    C26      Z     0.00117  0.01477 -0.08606  0.06178 -0.00332 -0.00747
    H27      X    -0.00149  0.06685 -0.04841  0.02777  0.04597  0.01661
    H27      Y     0.00138  0.02481  0.09386 -0.09422  0.02691  0.04184
    H27      Z     0.00072  0.03099 -0.11038  0.07851  0.00212 -0.01432
    H28      X    -0.00014  0.02230 -0.00809  0.01028  0.02358  0.05633
    H28      Y     0.00046  0.01129  0.00951 -0.00509  0.00063  0.04741
    H28      Z     0.00048  0.01837 -0.13414  0.10795 -0.01131 -0.00546
    C29      X    -0.00017  0.02482 -0.06857 -0.06450 -0.01463  0.01112
    C29      Y    -0.00001  0.05421  0.06383  0.03521 -0.01828  0.00509
    C29      Z     0.00020 -0.00066 -0.03745 -0.04095 -0.01382  0.01018
    H30      X     0.00006  0.03327 -0.08922 -0.08810 -0.01699  0.01570
    H30      Y     0.00037  0.08499  0.08661  0.04694 -0.02436  0.02020
    H30      Z     0.00037 -0.00366 -0.08315 -0.08546 -0.01435  0.00938
    H31      X     0.00010  0.01042 -0.08920 -0.07824 -0.01565 -0.00200
    H31      Y     0.00053  0.05094  0.09725  0.07239 -0.02259 -0.00751
    H31      Z     0.00057  0.00873  0.01318  0.00730 -0.01711  0.00938
    C32      X    -0.00001  0.05424 -0.05486 -0.06311 -0.01606  0.03460
    C32      Y     0.00003  0.02617  0.04567  0.02718 -0.01307 -0.00866
    C32      Z     0.00020 -0.02163 -0.06205 -0.06139 -0.00160  0.01490
    H33      X    -0.00051  0.07282 -0.03333 -0.04886 -0.01686  0.04927
    H33      Y    -0.00000  0.03326  0.02060 -0.00247 -0.01035  0.00469
    H33      Z     0.00043 -0.03412 -0.12288 -0.11995  0.00318  0.01591
    H34      X    -0.00021  0.06768 -0.08920 -0.10298 -0.01926  0.04284
    H34      Y     0.00052  0.02962  0.08704  0.07028 -0.01905 -0.01982
    H34      Z     0.00004 -0.03062 -0.06961 -0.06716  0.00367  0.01750
    C35      X     0.00104  0.00280  0.01111 -0.00623  0.02083 -0.00912
    C35      Y     0.00085  0.00997 -0.03776  0.05111 -0.01667  0.10425
    C35      Z     0.00010  0.07133 -0.00854 -0.04888  0.05509 -0.06029
    H36      X    -0.00192 -0.00777  0.03203 -0.02760  0.02176 -0.04337
    H36      Y     0.00079  0.00829 -0.05664  0.07129 -0.02314  0.11226
    H36      Z    -0.00060  0.07914  0.04193 -0.10318  0.07410 -0.07504
    H37      X     0.00048 -0.02081  0.00204  0.02254 -0.00097  0.03898
    H37      Y     0.00013  0.00563 -0.08265  0.09904 -0.03218  0.12217
    H37      Z    -0.00027  0.07306 -0.04241 -0.01687  0.04741 -0.05630
    H38      X     0.00061  0.02371  0.00499 -0.01249  0.03431 -0.02007
    H38      Y    -0.00011  0.01437 -0.01653  0.03333 -0.01021  0.12844
    H38      Z    -0.00004  0.09323 -0.02023 -0.05157  0.06838 -0.07793
    C39      X    -0.00256  0.01901 -0.00342  0.00352  0.02615  0.01880
    C39      Y     0.00164  0.00108 -0.01700  0.02152  0.00609 -0.05480
    C39      Z    -0.00019 -0.08984  0.07389 -0.05431 -0.03662  0.02872
    H40      X    -0.00612  0.03822 -0.05602  0.05038  0.03351 -0.00298
    H40      Y    -0.00188  0.00462  0.00322  0.00177  0.00969 -0.06463
    H40      Z    -0.00228 -0.09074  0.10784 -0.08641 -0.03442  0.02357
    H41      X     0.00324  0.03255 -0.00233 -0.00398  0.02483  0.02970
    H41      Y    -0.00218  0.00185 -0.01492  0.02065  0.00913 -0.06594
    H41      Z     0.00263 -0.10846  0.06742 -0.04299 -0.04240  0.04335
    H42      X    -0.00382 -0.00756  0.03428 -0.02381  0.02181  0.02415
    H42      Y     0.00289 -0.00617 -0.05613  0.06223  0.00435 -0.05417
    H42      Z    -0.00150 -0.10294  0.10805 -0.08293 -0.03795  0.03217
    C43      X    -0.00002 -0.02071  0.00716  0.03495 -0.01334 -0.02646
    C43      Y     0.00023  0.05590 -0.00189 -0.03744 -0.00842  0.02483
    C43      Z    -0.00039  0.03825  0.03085  0.02031 -0.03429 -0.00660
    H44      X    -0.00206 -0.04085  0.02864  0.06003 -0.00329 -0.02618
    H44      Y     0.00257  0.05041 -0.04312 -0.07897 -0.00425  0.03707
    H44      Z    -0.00098  0.04864  0.04429  0.03253 -0.03997 -0.01345
    H45      X    -0.00027 -0.02731  0.01590  0.05156 -0.01978 -0.04052
    H45      Y    -0.00050  0.04861  0.03203  0.00262 -0.01082  0.00864
    H45      Z    -0.00064  0.03832  0.06239  0.04835 -0.02803 -0.00702
    H46      X    -0.00005 -0.01124 -0.00249  0.02545 -0.02145 -0.03020
    H46      Y     0.00022  0.08109  0.00265 -0.04477 -0.00998  0.03356
    H46      Z    -0.00045  0.04779  0.01753  0.00861 -0.04492 -0.01267
    C47      X    -0.00170  0.08077  0.05818  0.04822 -0.02291  0.06105
    C47      Y    -0.00077 -0.05267 -0.04737 -0.04235  0.00855 -0.04478
    C47      Z    -0.00300 -0.02243  0.01749  0.02365 -0.00035  0.02473
    H48      X    -0.00123  0.07114  0.07985  0.07271 -0.02046  0.05666
    H48      Y    -0.00223 -0.08660 -0.08915 -0.07517  0.01846 -0.06459
    H48      Z    -0.00145 -0.01346  0.06855  0.07262 -0.00336  0.03122
    H49      X    -0.00196  0.10204  0.10819  0.09494 -0.02875  0.08074
    H49      Y    -0.00297 -0.03777 -0.04241 -0.03807  0.00555 -0.02596
    H49      Z    -0.00563 -0.03347 -0.03469 -0.02542  0.00359  0.01875
    H50      X    -0.00348  0.10130  0.04604  0.03121 -0.02845  0.07459
    H50      Y     0.00272 -0.05955 -0.04435 -0.04031  0.00970 -0.05780
    H50      Z    -0.00553 -0.02914  0.02251  0.03300  0.00220  0.02924
    H51      X     0.00007  0.04284  0.01334 -0.03762  0.05338 -0.06399
    H51      Y     0.00135  0.01817  0.06246 -0.06193  0.01768  0.02929
    H51      Z     0.00008  0.03282  0.02055 -0.05185  0.03152 -0.02596
    H52      X     0.00110  0.01021 -0.02581 -0.02196 -0.00575  0.01314
    H52      Y    -0.00127  0.04758 -0.04086 -0.07608 -0.00297  0.03383
    H52      Z    -0.00149  0.00929 -0.05377 -0.05626 -0.02088  0.00598
    H53      X     0.00042  0.02089 -0.06595 -0.06576 -0.00711  0.00977
    H53      Y     0.00124 -0.03819 -0.01033 -0.01219  0.00283 -0.05064
    H53      Z     0.00011 -0.00310  0.06555  0.06315 -0.00728  0.01840
    H54      X     0.00622 -0.00740  0.06549 -0.05728  0.01756  0.04633
    H54      Y     0.02254 -0.00174 -0.01864  0.01978 -0.00958 -0.01925
    H54      Z     0.00886 -0.05032 -0.03986  0.04293 -0.03674  0.01843
    H55      X     0.00073 -0.04857 -0.00996  0.02797 -0.01619 -0.00925
    H55      Y    -0.00338 -0.03015 -0.00942 -0.00848 -0.00058 -0.01399
    H55      Z     0.00070  0.00200  0.00936 -0.01340  0.00114  0.00595
    H56      X     0.00029 -0.02727 -0.00216  0.01452 -0.00540 -0.00100
    H56      Y    -0.00079 -0.04873  0.00118  0.00698 -0.01102  0.00027
    H56      Z    -0.00005  0.01186  0.02083 -0.01821  0.00546  0.02024
    H57      X    -0.00327 -0.07513  0.01871  0.02895 -0.01464  0.03720
    H57      Y     0.00093 -0.03729  0.00229  0.00452 -0.01134  0.00730
    H57      Z    -0.00864  0.00763  0.00304 -0.02698  0.01178 -0.01208
    H58      X    -0.00211 -0.07355  0.01435  0.03061 -0.01604  0.03225
    H58      Y     0.00218  0.00861 -0.01417 -0.01269  0.00154 -0.03076
    H58      Z    -0.00132 -0.02116 -0.00309 -0.00645 -0.00485 -0.00179
  
  vibration #            7        8        9       10       11       12
                  -------- -------- -------- -------- -------- --------
  frequencies        82.31    87.70    92.23   105.04   118.22   132.72
  intensities         4.14     1.12     2.86     0.91     3.47     2.82
  reduc. mass         1.10     1.28     1.16     1.75     1.33     1.07
  force const         0.00     0.01     0.01     0.01     0.01     0.01
    Rh1      X    -0.00764  0.00832 -0.00231  0.01490  0.00881 -0.01187
    Rh1      Y    -0.01732  0.00503  0.00738 -0.02289 -0.01526 -0.00391
    Rh1      Z     0.00080 -0.01108  0.00316  0.01708  0.00386 -0.00851
    O2       X    -0.02059 -0.03480 -0.01872  0.01212 -0.02165 -0.03178
    O2       Y     0.03388  0.02502 -0.00467 -0.00857 -0.10908 -0.09883
    O2       Z     0.00601 -0.01125  0.00448  0.02204 -0.00237 -0.01204
    C3       X    -0.01860 -0.04297 -0.01831  0.00903 -0.02356 -0.02970
    C3       Y     0.08917  0.03765 -0.03174  0.00460 -0.03898 -0.02894
    C3       Z     0.00209  0.00716  0.00350  0.02780  0.00365 -0.01645
    N4       X    -0.01918 -0.03150 -0.02043  0.01259 -0.01376 -0.02698
    N4       Y     0.09753  0.03132 -0.04648 -0.00414  0.05855  0.07448
    N4       Z    -0.00005  0.02648  0.00103  0.03375  0.00574 -0.02611
    C5       X    -0.02119 -0.00827 -0.03163  0.01608  0.00067 -0.02063
    C5       Y     0.04021  0.00408 -0.03755 -0.02638  0.03280  0.05875
    C5       Z     0.00958  0.03031 -0.00009  0.03821  0.00994 -0.02488
    C6       X     0.00460 -0.00655 -0.04479  0.02100  0.02192  0.00779
    C6       Y     0.00959 -0.00005 -0.03000 -0.03092  0.01370  0.03468
    C6       Z     0.05507  0.04108 -0.00437  0.04877  0.02742 -0.00818
    C7       X    -0.04766  0.00802 -0.06691 -0.01016  0.01070  0.01520
    C7       Y     0.03267 -0.02303 -0.01609 -0.01414 -0.00316  0.02008
    C7       Z    -0.02923  0.02464 -0.02151  0.01868 -0.01140 -0.02006
    N8       X    -0.07789  0.01769 -0.11132 -0.03853  0.01337  0.05705
    N8       Y     0.02751 -0.05620  0.00411 -0.00151 -0.06536 -0.03604
    N8       Z    -0.07166  0.00701 -0.05878 -0.00537 -0.06398 -0.01811
    H9       X     0.01208 -0.03374 -0.05151  0.01428  0.01641  0.02558
    H9       Y     0.03747  0.01542 -0.03103 -0.02202  0.02734  0.04134
    H9       Z     0.08546  0.05007 -0.00708  0.05632  0.04039  0.00333
    H10      X     0.02221  0.01108 -0.05592  0.02721  0.04934  0.02782
    H10      Y    -0.02595 -0.01858 -0.02914 -0.04069 -0.00395  0.02524
    H10      Z     0.07365  0.05326 -0.00787  0.05421  0.04202  0.00110
    H11      X    -0.01749 -0.03949 -0.01965  0.01119 -0.01732 -0.02594
    H11      Y     0.13409  0.03821 -0.07465  0.00715  0.09300  0.10954
    H11      Z    -0.00463  0.04108  0.00073  0.03580  0.01100 -0.02938
    H12      X    -0.01645 -0.06087 -0.01574  0.00399 -0.03539 -0.02989
    H12      Y     0.13438  0.05560 -0.04610  0.02322 -0.05221 -0.04675
    H12      Z    -0.00161  0.00769  0.00435  0.02697  0.00580 -0.01511
    P13      X     0.00757  0.00857  0.02480 -0.01103  0.03598 -0.03658
    P13      Y    -0.01218  0.01144  0.01002 -0.00905  0.00346  0.01157
    P13      Z    -0.00399 -0.01340 -0.00027  0.01149 -0.00567  0.01192
    P14      X     0.01379  0.01455  0.03145  0.02490 -0.02932  0.03405
    P14      Y    -0.02002 -0.00085  0.01696 -0.00834 -0.00628 -0.00179
    P14      Z     0.00658 -0.00194  0.00150 -0.00188  0.03560 -0.01034
    C15      X     0.01917 -0.01088  0.03468 -0.01905  0.02815 -0.01668
    C15      Y    -0.00147  0.00389  0.01587 -0.01460 -0.00008  0.02207
    C15      Z     0.00189  0.00954 -0.00513  0.02735  0.00695  0.00373
    C16      X     0.01685  0.00668  0.03446  0.01994  0.00165  0.02529
    C16      Y    -0.00735  0.00605  0.01337 -0.01261 -0.00895  0.01440
    C16      Z     0.01034  0.00216 -0.00071  0.00180  0.02737 -0.00342
    H17      X    -0.00697  0.00893 -0.00646  0.01731  0.00938 -0.01321
    H17      Y    -0.02721  0.01291  0.04885 -0.03145 -0.02846 -0.01351
    H17      Z    -0.01466 -0.02908 -0.01657  0.01966 -0.01632 -0.00455
    H18      X     0.02110 -0.01373 -0.04817  0.04096  0.04393  0.02854
    H18      Y    -0.02377  0.00754  0.00915 -0.02686 -0.01250 -0.00756
    H18      Z     0.01322 -0.00783  0.00796  0.02292 -0.03167 -0.02036
    C19      X    -0.00386  0.01420  0.01568 -0.01226  0.01075 -0.01287
    C19      Y     0.01306 -0.01418 -0.00200  0.01988  0.01346 -0.00674
    C19      Z    -0.03123  0.01927  0.02357 -0.02648  0.00017  0.02507
    C20      X     0.01408 -0.01909  0.01757 -0.02142  0.02219 -0.02249
    C20      Y    -0.01373  0.03782 -0.00494  0.03766 -0.00770  0.01275
    C20      Z     0.00421 -0.05574 -0.01467 -0.00116 -0.03323  0.04501
    C21      X     0.02545  0.01047  0.02755  0.00119 -0.03261  0.02896
    C21      Y    -0.01421 -0.01394 -0.02602 -0.00238  0.03900 -0.02051
    C21      Z     0.01756 -0.00579  0.00610 -0.03738  0.02809 -0.02253
    C22      X     0.03054  0.01999 -0.00928 -0.00312 -0.02708  0.02137
    C22      Y    -0.02992 -0.01897  0.04562  0.01774  0.01251  0.00436
    C22      Z     0.01095  0.02876  0.00212 -0.01853 -0.00058 -0.00032
    C23      X     0.02024  0.00210 -0.01418 -0.00575 -0.01142  0.00780
    C23      Y    -0.00201 -0.02190  0.01419 -0.00021  0.04091 -0.01252
    C23      Z    -0.00466  0.01979  0.00986 -0.01534 -0.00237 -0.00268
    H24      X     0.02208  0.00203 -0.04207 -0.01383 -0.00328 -0.00252
    H24      Y     0.00251 -0.02415  0.01954 -0.00089  0.04479 -0.01257
    H24      Z    -0.02386  0.02835  0.01469 -0.00500 -0.02442  0.00692
    H25      X     0.01147 -0.01064  0.00939 -0.00421 -0.01050  0.00677
    H25      Y     0.01454 -0.02714  0.01747 -0.00627  0.05627 -0.01627
    H25      Z     0.01051  0.02028  0.00417 -0.02019  0.00881 -0.00494
    C26      X     0.02165  0.00513 -0.01110 -0.00355 -0.01324  0.01047
    C26      Y    -0.00352 -0.01685 -0.02625 -0.00567  0.04659 -0.02202
    C26      Z    -0.01012  0.00211  0.01772 -0.02545  0.00660 -0.01523
    H27      X     0.01710 -0.00412 -0.00896 -0.01047 -0.01014  0.00290
    H27      Y     0.01457 -0.01964 -0.05249 -0.01222  0.06559 -0.02962
    H27      Z    -0.01611 -0.00376  0.02340 -0.02927  0.00567 -0.01930
    H28      X     0.02639  0.01430 -0.03735  0.00058 -0.00947  0.01157
    H28      Y    -0.01728 -0.01293 -0.02865 -0.00171  0.03736 -0.02087
    H28      Z    -0.02615  0.00186  0.02720 -0.02328 -0.00427 -0.01458
    C29      X     0.01207 -0.02320 -0.00349 -0.00763 -0.00529  0.00034
    C29      Y     0.00974 -0.01133 -0.00637  0.03244 -0.00632  0.00919
    C29      Z    -0.00953 -0.02563 -0.00742 -0.00297 -0.02659  0.04173
    H30      X     0.01200 -0.02507 -0.01189 -0.00179 -0.01557  0.00782
    H30      Y     0.00709 -0.00425 -0.00916  0.04314 -0.01325  0.01301
    H30      Z    -0.00823 -0.03240 -0.01953  0.00080 -0.03945  0.05177
    H31      X     0.02462 -0.05161 -0.01093 -0.01197 -0.00914  0.00164
    H31      Y     0.02711 -0.04540 -0.00570  0.02659 -0.00084  0.00165
    H31      Z    -0.00356 -0.03402 -0.00027 -0.00481 -0.01785  0.03313
    C32      X    -0.00574  0.01371  0.00030  0.00085 -0.00958  0.00591
    C32      Y     0.01380 -0.01906 -0.00335  0.02332  0.00137  0.00297
    C32      Z    -0.03358  0.02227  0.00598 -0.01097 -0.01567  0.03980
    H33      X    -0.01820  0.03798  0.00719  0.00088 -0.00902  0.00810
    H33      Y    -0.00327  0.01308 -0.00386  0.02855 -0.00550  0.01451
    H33      Z    -0.04244  0.03791 -0.00295 -0.00356 -0.02593  0.05315
    H34      X    -0.00877  0.01592 -0.01346  0.01395 -0.02775  0.02365
    H34      Y     0.03406 -0.05700 -0.00365  0.01971  0.00703 -0.00884
    H34      Z    -0.04443  0.04428  0.01325 -0.01562 -0.00984  0.03805
    C35      X     0.02017  0.01390  0.03332  0.02088 -0.03799  0.04433
    C35      Y    -0.04332 -0.01518 -0.06460  0.02081  0.06350 -0.04214
    C35      Z     0.04130 -0.01222  0.01022 -0.08962  0.02874 -0.04555
    H36      X     0.02927  0.01872  0.06460  0.01838 -0.06621  0.07151
    H36      Y    -0.05147 -0.01383 -0.06608  0.02420  0.06034 -0.04304
    H36      Z     0.06333 -0.01745  0.00660 -0.09907  0.04564 -0.04988
    H37      X     0.00080  0.01411  0.01021  0.06138 -0.01649  0.04619
    H37      Y    -0.06267 -0.01166 -0.06699  0.02880  0.05449 -0.04317
    H37      Z     0.02997 -0.00943  0.01318 -0.09185  0.01692 -0.04676
    H38      X     0.02785  0.01068  0.03031 -0.00412 -0.03464  0.02768
    H38      Y    -0.03861 -0.02188 -0.09249  0.02791  0.09933 -0.06060
    H38      Z     0.04860 -0.01420  0.01343 -0.11870  0.02418 -0.05967
    C39      X     0.02451  0.01131  0.00151  0.00804 -0.02132  0.02627
    C39      Y    -0.04357 -0.04700  0.10251  0.07233  0.03218  0.03910
    C39      Z     0.03865  0.06327 -0.01460 -0.04317 -0.02603  0.00263
    H40      X     0.00410 -0.02123  0.04018  0.05066  0.00181  0.04486
    H40      Y    -0.03462 -0.05515  0.10563  0.08607  0.05973  0.04291
    H40      Z     0.05240  0.06228 -0.02000 -0.03874 -0.00272  0.00200
    H41      X     0.02612  0.01819 -0.03049 -0.01770 -0.01885  0.00164
    H41      Y    -0.04298 -0.05770  0.11867  0.09247  0.04869  0.05061
    H41      Z     0.03534  0.08159 -0.01566 -0.06196 -0.07044  0.00412
    H42      X     0.03749  0.02853  0.00232  0.00076 -0.04093  0.03509
    H42      Y    -0.05924 -0.04953  0.12588  0.08098  0.00388  0.05470
    H42      Z     0.05148  0.07401 -0.02175 -0.05032 -0.02890  0.00260
    C43      X     0.02899 -0.08349  0.02401 -0.07192  0.02625 -0.01453
    C43      Y    -0.01597  0.05315 -0.01064  0.05816 -0.01284  0.01334
    C43      Z     0.02485 -0.11801 -0.03181 -0.00617 -0.05346  0.06791
    H44      X     0.02820 -0.06060  0.04504 -0.07122  0.05701 -0.05390
    H44      Y    -0.02989  0.09038 -0.00906  0.06630 -0.01239  0.01322
    H44      Z     0.03187 -0.14528 -0.04079 -0.01058 -0.06514  0.08260
    H45      X     0.03799 -0.12838  0.02089 -0.10065  0.01732  0.00472
    H45      Y    -0.00452  0.01442 -0.00782  0.03594 -0.00818  0.01249
    H45      Z     0.02654 -0.10280 -0.02365  0.00712 -0.03455  0.03890
    H46      X     0.03277 -0.11021  0.01155 -0.08042  0.00604  0.01403
    H46      Y    -0.01695  0.06736 -0.02270  0.08810 -0.02323  0.01705
    H46      Z     0.02992 -0.15514 -0.04692 -0.02108 -0.07904  0.10549
    C47      X    -0.02558  0.03664  0.04533 -0.06265  0.00466  0.01104
    C47      Y     0.01051 -0.00858 -0.00414  0.02380  0.02204 -0.01225
    C47      Z    -0.05404  0.04631  0.04673 -0.06640  0.00571  0.04006
    H48      X    -0.02832  0.04133  0.06061 -0.07562  0.02311 -0.00082
    H48      Y     0.01149 -0.00747 -0.00854  0.03351  0.03275 -0.02196
    H48      Z    -0.05782  0.05104  0.06731 -0.08733  0.02119  0.03163
    H49      X    -0.03907  0.05126  0.06697 -0.09679  0.00536  0.02280
    H49      Y    -0.00582  0.00894  0.00274 -0.00150  0.00591  0.01572
    H49      Z    -0.05291  0.04479  0.02824 -0.04961 -0.00901  0.05079
    H50      X    -0.02680  0.03568  0.03309 -0.05822 -0.01979  0.03189
    H50      Y     0.02525 -0.02427 -0.01036  0.04504  0.03385 -0.03456
    H50      Z    -0.06877  0.06348  0.06157 -0.09177  0.00984  0.04948
    H51      X     0.04513  0.00983  0.05245 -0.03689 -0.05170  0.02729
    H51      Y     0.00197 -0.01772 -0.02841 -0.00885  0.04833 -0.02253
    H51      Z     0.02865 -0.00919 -0.00009 -0.03724  0.03982 -0.02401
    H52      X     0.00527  0.01979  0.02026  0.00399  0.02820 -0.03435
    H52      Y    -0.02937  0.08558 -0.00708  0.06293 -0.01066  0.01062
    H52      Z    -0.00052 -0.05934 -0.02117 -0.01035 -0.04499  0.05929
    H53      X     0.00774  0.00274 -0.00265  0.01604  0.01032 -0.02213
    H53      Y     0.03469 -0.03649 -0.01475  0.04961  0.02491 -0.03157
    H53      Z    -0.02717  0.01418  0.03566 -0.03658  0.01046  0.01548
    H54      X     0.05430  0.05037 -0.04638 -0.04090 -0.04658  0.00796
    H54      Y    -0.03663 -0.00843  0.04269  0.00880 -0.00644  0.00382
    H54      Z     0.00024  0.03442  0.00531 -0.02139 -0.01656  0.00136
    H55      X     0.02695 -0.03723  0.04289 -0.04824  0.03679 -0.01875
    H55      Y     0.00463  0.00582  0.01823 -0.02959  0.01704  0.01456
    H55      Z     0.00366  0.00910 -0.00419  0.02256  0.01143  0.00190
    H56      X     0.01644 -0.00437  0.03179 -0.01447  0.02950 -0.02200
    H56      Y     0.00144  0.00044  0.02121 -0.00550 -0.01620  0.04797
    H56      Z    -0.00669  0.03451 -0.01182  0.06197 -0.00987  0.01555
    H57      X     0.01676  0.01068  0.03613  0.03737  0.00056  0.04347
    H57      Y    -0.00716  0.01026  0.01522  0.00508 -0.01039  0.03323
    H57      Z     0.01403  0.00759 -0.00327  0.00822  0.01278  0.01171
    H58      X     0.01772  0.00566  0.03707  0.02436  0.00968  0.03015
    H58      Y    -0.00492 -0.00054  0.01207 -0.03714 -0.00344 -0.00682
    H58      Z     0.01542 -0.00817  0.00324 -0.01601  0.05213 -0.01643
  
  vibration #           13       14       15       16       17       18
                  -------- -------- -------- -------- -------- --------
  frequencies       141.61   160.90   168.92   191.84   204.57   212.96
  intensities         0.41     4.16     1.49     2.33     2.70     0.08
  reduc. mass         0.93     5.29     9.86     1.77     0.48     0.84
  force const         0.01     0.08     0.17     0.04     0.01     0.02
    Rh1      X    -0.01057  0.02893  0.00974  0.03026  0.01054  0.00586
    Rh1      Y    -0.01204  0.02289 -0.03675  0.00111  0.00660 -0.01254
    Rh1      Z    -0.01029 -0.02720 -0.03878  0.00672 -0.00378 -0.00102
    O2       X    -0.00949 -0.00520 -0.00189 -0.06070 -0.02338 -0.00635
    O2       Y     0.04003 -0.02984  0.03942  0.06246  0.05478 -0.01183
    O2       Z    -0.01696 -0.01930 -0.03405 -0.02954 -0.01494 -0.01311
    C3       X    -0.00381 -0.02409 -0.00909 -0.06127 -0.03343 -0.00513
    C3       Y     0.04002 -0.03159  0.06372 -0.00349 -0.00965  0.00307
    C3       Z    -0.02893  0.01822 -0.02201 -0.02672  0.00471 -0.01528
    N4       X    -0.01242  0.00112 -0.00107 -0.05926 -0.01917 -0.00565
    N4       Y     0.00576 -0.01130 -0.00635 -0.02418 -0.03885  0.00805
    N4       Z    -0.03629  0.05164 -0.00103 -0.02114  0.02759 -0.01628
    C5       X    -0.01760  0.03797  0.02401 -0.04000  0.01505 -0.00445
    C5       Y     0.00220 -0.01832 -0.05329  0.03428  0.01781 -0.00656
    C5       Z    -0.03658  0.05432  0.00808 -0.03604  0.01636 -0.01405
    C6       X    -0.01244  0.03556  0.02981 -0.00771  0.04161 -0.00102
    C6       Y    -0.00562 -0.00417 -0.05239  0.02474  0.02809 -0.01582
    C6       Z    -0.03291  0.03846  0.01555 -0.07509 -0.04159  0.00191
    C7       X     0.00805  0.00065 -0.00242 -0.00807  0.01625 -0.00190
    C7       Y    -0.00289 -0.00604 -0.02606  0.02339  0.02526 -0.00677
    C7       Z    -0.01193  0.02324  0.00286 -0.01085  0.02188 -0.01123
    N8       X     0.04697 -0.05961 -0.02850  0.00848 -0.00539  0.00518
    N8       Y     0.00802 -0.02472  0.02364 -0.02572 -0.03248  0.00937
    N8       Z     0.04649 -0.06895  0.01509 -0.03433 -0.05740  0.01208
    H9       X     0.00743 -0.01106 -0.00461  0.03034  0.05273  0.00755
    H9       Y    -0.00736 -0.00022 -0.03691 -0.01035 -0.01327 -0.00767
    H9       Z    -0.02928  0.03078  0.02269 -0.10141 -0.08134  0.01260
    H10      X    -0.00761  0.05200  0.04461 -0.00562  0.04906 -0.00223
    H10      Y    -0.00596 -0.00470 -0.06794  0.06692  0.08399 -0.02763
    H10      Z    -0.03170  0.04362  0.02566 -0.09073 -0.06072  0.00594
    H11      X    -0.00847 -0.01392 -0.00697 -0.06819 -0.03358 -0.00528
    H11      Y     0.01450 -0.01739  0.03204 -0.09334 -0.09362  0.02070
    H11      Z    -0.04391  0.07950  0.00807 -0.00114  0.05677 -0.01742
    H12      X     0.00818 -0.05883 -0.01815 -0.06481 -0.05140 -0.00423
    H12      Y     0.06722 -0.04896  0.14117 -0.04582 -0.04338  0.01219
    H12      Z    -0.03236  0.02347 -0.02676 -0.02336  0.00928 -0.01618
    P13      X    -0.01515 -0.03173 -0.01284  0.03672 -0.01278  0.02857
    P13      Y    -0.03232 -0.01174  0.02828 -0.01768 -0.00994 -0.02926
    P13      Z    -0.01147 -0.01205 -0.00421  0.02040  0.00432  0.01568
    P14      X     0.01950  0.00354 -0.00773  0.00564 -0.01086 -0.00408
    P14      Y     0.00742  0.03110 -0.01838 -0.00924 -0.01303  0.01995
    P14      Z     0.04112 -0.01273  0.01815  0.01220  0.01859 -0.03703
    C15      X    -0.00250 -0.04803 -0.01078 -0.02565  0.05494  0.08582
    C15      Y    -0.01253 -0.01496  0.03227 -0.06156  0.03433 -0.00621
    C15      Z     0.03140  0.00407  0.00731  0.04695 -0.01381 -0.05883
    C16      X     0.03605 -0.04556 -0.01206 -0.05217  0.09414  0.03858
    C16      Y    -0.01689  0.00429  0.01483 -0.03637  0.00608  0.00542
    C16      Z     0.02877 -0.01416  0.02898  0.01998  0.00662 -0.05386
    H17      X    -0.01414  0.03485  0.01473  0.01923  0.01295  0.00246
    H17      Y    -0.00478  0.01839 -0.04906  0.03044 -0.00956 -0.00114
    H17      Z    -0.00539 -0.02181 -0.03885  0.00087  0.00011 -0.00501
    H18      X     0.01942  0.03522  0.03899 -0.03676  0.01813  0.01257
    H18      Y    -0.01566  0.02466 -0.03507  0.00804  0.00727 -0.01385
    H18      Z    -0.01703 -0.02694 -0.05438  0.00130 -0.01609  0.01581
    C19      X     0.00313 -0.01272 -0.00727  0.01518 -0.01590 -0.00453
    C19      Y    -0.03865 -0.02738  0.01657  0.00327 -0.00944 -0.00101
    C19      Z    -0.03212 -0.01657  0.03173  0.02219  0.00080  0.01680
    C20      X    -0.00992 -0.02057 -0.00447  0.01256 -0.01235  0.00996
    C20      Y    -0.02157 -0.02205  0.01699 -0.00134 -0.00426 -0.00695
    C20      Z    -0.00799  0.01617  0.02102 -0.00120  0.01883  0.01653
    C21      X     0.00848  0.00529 -0.01441  0.00088 -0.02156  0.00598
    C21      Y     0.02397  0.01127  0.00829 -0.00957  0.01665 -0.00299
    C21      Z     0.02979  0.00461  0.00924  0.00224  0.00030 -0.00319
    C22      X     0.00059  0.00127 -0.00881  0.00344 -0.01242 -0.00831
    C22      Y     0.03664  0.02682 -0.00520 -0.00231 -0.02089  0.02123
    C22      Z     0.04071  0.01412  0.00044 -0.00505  0.01949 -0.01920
    C23      X    -0.00684 -0.00307 -0.00492  0.00125 -0.00748 -0.00405
    C23      Y     0.03929  0.01273  0.01499  0.00596 -0.03401  0.03472
    C23      Z     0.03505  0.01834 -0.00594 -0.00853  0.02410 -0.02030
    H24      X    -0.01595 -0.00932 -0.00328 -0.00701  0.02667 -0.03068
    H24      Y     0.04463  0.01279  0.01893  0.01108 -0.05305  0.05139
    H24      Z     0.02345  0.02386 -0.02222 -0.02090  0.06629 -0.06017
    H25      X    -0.00022  0.00994 -0.00787  0.01074 -0.06159  0.04591
    H25      Y     0.05177  0.00994  0.02802  0.01845 -0.07788  0.07390
    H25      Z     0.04193  0.01180  0.00469 -0.00265  0.01064 -0.00894
    C26      X    -0.00209 -0.00159 -0.00358  0.00095 -0.00478 -0.00615
    C26      Y     0.02389  0.00104  0.01534 -0.00843  0.03064 -0.02037
    C26      Z     0.03438  0.03238 -0.00835  0.00148 -0.04058  0.04290
    H27      X    -0.00493  0.00769 -0.00782  0.00616 -0.04532  0.03465
    H27      Y     0.01434 -0.02526  0.03134 -0.00913  0.08157 -0.07901
    H27      Z     0.03399  0.04314 -0.01384  0.00509 -0.07670  0.08066
    H28      X    -0.00941 -0.02050  0.00319 -0.00854  0.06627 -0.07753
    H28      Y     0.02247  0.01201  0.00622 -0.01209  0.02321 -0.00719
    H28      Z     0.03640  0.05203 -0.02060  0.00213 -0.08048  0.08876
    C29      X     0.01627  0.00890 -0.00425 -0.02072  0.00467 -0.00447
    C29      Y    -0.02800 -0.01949  0.01077  0.01797 -0.00680  0.00514
    C29      Z    -0.01174  0.00733  0.02552 -0.00329  0.01559  0.01096
    H30      X     0.02767  0.02015 -0.00634 -0.03734  0.01034 -0.01423
    H30      Y    -0.02451 -0.02077  0.00666  0.03530 -0.01366  0.00286
    H30      Z     0.00470  0.02613  0.02439 -0.03919  0.02859 -0.00312
    H31      X     0.02379  0.02123 -0.00875 -0.05211  0.01776 -0.00553
    H31      Y    -0.03340 -0.02192  0.00337  0.02083 -0.00539  0.01770
    H31      Z    -0.02351 -0.00584  0.02210  0.02700  0.00554  0.02422
    C32      X     0.01704  0.00331  0.00002  0.00365 -0.00900 -0.01775
    C32      Y    -0.02972 -0.02028  0.00996  0.00150 -0.00210  0.00338
    C32      Z    -0.02215 -0.00403  0.04228  0.01188  0.00279 -0.00229
    H33      X     0.01328 -0.00263  0.00535  0.02268 -0.01891 -0.02224
    H33      Y    -0.02884 -0.01960  0.02616  0.01176 -0.01063 -0.01458
    H33      Z    -0.01639  0.00389  0.05845  0.00361  0.00281 -0.02187
    H34      X     0.02665  0.01472  0.01075 -0.00211 -0.00526 -0.02737
    H34      Y    -0.03058 -0.02082 -0.00992 -0.00547  0.00659  0.02674
    H34      Z    -0.02664 -0.00959  0.04918  0.01915 -0.00446 -0.01161
    C35      X     0.01359 -0.00190 -0.01486  0.01443 -0.03142 -0.02562
    C35      Y     0.04135  0.03459  0.03639  0.01393 -0.02758  0.03255
    C35      Z     0.01359  0.01076 -0.00281 -0.03708  0.03910  0.04963
    H36      X     0.00165 -0.01035 -0.04469  0.01396 -0.06152 -0.02547
    H36      Y     0.04262  0.04770  0.03327  0.02233 -0.07447  0.07346
    H36      Z     0.01344 -0.02606  0.01446 -0.06194  0.18602 -0.07129
    H37      X     0.03489 -0.01107  0.01549  0.04043 -0.01642 -0.09289
    H37      Y     0.04395  0.06632  0.02733  0.03415 -0.14287  0.13300
    H37      Z     0.01097  0.03817 -0.01653 -0.02621 -0.05653  0.14396
    H38      X     0.00731  0.00751 -0.01750 -0.00324 -0.02185  0.01811
    H38      Y     0.05523  0.01001  0.07621  0.00454  0.09975 -0.07556
    H38      Z     0.00360  0.02689 -0.01484 -0.05440  0.02030  0.12289
    C39      X     0.00753 -0.00830 -0.00399  0.00195 -0.00099 -0.02039
    C39      Y     0.10241  0.00049  0.01972 -0.00447 -0.00727 -0.00373
    C39      Z     0.05760  0.05811 -0.01252  0.00584 -0.05494  0.03824
    H40      X     0.03485 -0.04805  0.01738 -0.00521  0.05003 -0.06961
    H40      Y     0.13460 -0.02938  0.05190  0.00255 -0.00384 -0.02089
    H40      Z     0.08495  0.03675  0.01609  0.01503 -0.06359  0.03219
    H41      X    -0.03745 -0.01217 -0.00924  0.00212  0.01608 -0.02543
    H41      Y     0.13414 -0.01878  0.03971 -0.00233 -0.00248 -0.01809
    H41      Z     0.03389  0.11143 -0.05606  0.00013 -0.08826  0.08071
    H42      X     0.02961  0.02332 -0.01379  0.00683 -0.05315  0.02048
    H42      Y     0.09756  0.02791 -0.01045 -0.01442 -0.00774  0.00688
    H42      Z     0.07167  0.06790 -0.00870  0.01190 -0.08535  0.05867
    C43      X    -0.02565 -0.00063  0.02513  0.01280 -0.05715 -0.09223
    C43      Y    -0.01644 -0.02485  0.00910  0.00596  0.01604  0.04263
    C43      Z    -0.01138  0.05570  0.04410  0.03896  0.03029  0.05275
    H44      X    -0.03620 -0.05279  0.00608  0.02660 -0.09883 -0.14344
    H44      Y    -0.00652 -0.03423 -0.00506 -0.03257  0.02935  0.04494
    H44      Z    -0.01246  0.07976  0.05856  0.05392  0.03874  0.07092
    H45      X    -0.03156  0.02809  0.04988  0.00557 -0.06859 -0.13852
    H45      Y    -0.02816 -0.01978  0.02568  0.02722 -0.01229 -0.00275
    H45      Z    -0.01794  0.01992  0.02942  0.07700  0.01091  0.06264
    H46      X    -0.02176  0.03835  0.04377  0.00305 -0.03626 -0.07756
    H46      Y    -0.00865 -0.02066  0.00101  0.03107  0.05100  0.13578
    H46      Z    -0.00723  0.10704  0.06988  0.02319  0.05409  0.06160
    C47      X     0.01039 -0.00686  0.02399 -0.03905 -0.00003 -0.02327
    C47      Y    -0.06227 -0.04254  0.03763  0.03414 -0.03025  0.01371
    C47      Z    -0.05714 -0.03090  0.08952  0.01628 -0.01158  0.02245
    H48      X    -0.01227 -0.03906  0.03599  0.01094 -0.02563  0.04765
    H48      Y    -0.08942 -0.06269  0.05518  0.08169 -0.05607  0.04561
    H48      Z    -0.06793 -0.05686  0.09311  0.04757 -0.02658  0.08797
    H49      X     0.01087 -0.01011  0.04568 -0.06309  0.00459 -0.01841
    H49      Y    -0.05509 -0.02005  0.07446 -0.03370 -0.01058 -0.05520
    H49      Z    -0.05122 -0.00760  0.09624 -0.01501  0.00023 -0.04252
    H50      X     0.04141  0.03436  0.01654 -0.11601  0.03598 -0.11785
    H50      Y    -0.06391 -0.05823  0.00307  0.08399 -0.04255  0.06763
    H50      Z    -0.07664 -0.04249  0.13128  0.01624 -0.02322  0.03017
    H51      X    -0.00654  0.00811 -0.03707 -0.02637 -0.00529  0.03755
    H51      Y     0.02178 -0.00568  0.01500 -0.01375  0.05002 -0.03432
    H51      Z     0.03022 -0.01100  0.01851  0.00206  0.02783 -0.03561
    H52      X    -0.00642 -0.04263 -0.02365  0.01906  0.00247  0.05224
    H52      Y    -0.01009 -0.03243  0.00350 -0.01847  0.01629  0.02167
    H52      Z    -0.00020  0.03656  0.03371 -0.02826  0.01871 -0.01417
    H53      X     0.00489 -0.01167 -0.02318  0.03410 -0.02082 -0.00284
    H53      Y    -0.04090 -0.03572 -0.01740  0.03138 -0.01260  0.01867
    H53      Z    -0.03653 -0.02517  0.02281  0.02231  0.00438  0.03191
    H54      X    -0.02164  0.02822 -0.02251  0.00806 -0.04659  0.02353
    H54      Y     0.02123  0.04075 -0.02021 -0.00918 -0.01437  0.02037
    H54      Z     0.02841  0.02388 -0.01242 -0.01264  0.03136 -0.02523
    H55      X    -0.02862 -0.07520 -0.00196 -0.08090  0.10099  0.16518
    H55      Y     0.00143 -0.01913  0.04637 -0.06935  0.03937 -0.02619
    H55      Z     0.03363  0.00180  0.01103  0.04269 -0.01052 -0.06032
    H56      X    -0.00163 -0.04045 -0.01257 -0.00106  0.03056  0.06208
    H56      Y     0.00178 -0.02379  0.02976 -0.11190  0.09056  0.02305
    H56      Z     0.05657  0.02802 -0.00464  0.08978 -0.04659 -0.12917
    H57      X     0.05883 -0.06365 -0.01149 -0.08618  0.15080  0.02434
    H57      Y     0.00596 -0.01404  0.01577 -0.07100  0.06326 -0.00973
    H57      Z     0.01138 -0.00705  0.04600  0.03514 -0.03353 -0.08315
    H58      X     0.05049 -0.06586 -0.01276 -0.08423  0.14784  0.04346
    H58      Y    -0.04884  0.01830  0.02201 -0.00077 -0.05853  0.02065
    H58      Z     0.02434 -0.04553  0.03609 -0.01331  0.05784 -0.02121
  
  vibration #           19       20       21       22       23       24
                  -------- -------- -------- -------- -------- --------
  frequencies       216.63   220.61   232.56   242.11   244.85   246.25
  intensities         0.04     0.21     3.88     0.60     0.16     0.51
  reduc. mass         0.56     0.29     3.78     0.88     0.22     0.14
  force const         0.02     0.01     0.12     0.03     0.01     0.00
    Rh1      X     0.00067  0.00483  0.02754 -0.02541 -0.00838  0.00126
    Rh1      Y     0.00017 -0.00282  0.02950  0.00645  0.01011  0.00082
    Rh1      Z     0.00216 -0.00226 -0.01187 -0.01233 -0.00678  0.00603
    O2       X    -0.00369  0.00251  0.00205  0.01879  0.01195  0.00402
    O2       Y     0.01283 -0.02398 -0.05113  0.00649 -0.00420  0.00101
    O2       Z     0.00308 -0.00616 -0.01627  0.01271  0.00458  0.01340
    C3       X    -0.00446  0.00549  0.00586  0.01428  0.01090  0.00700
    C3       Y    -0.00051  0.00240  0.00547 -0.00962 -0.00654 -0.01269
    C3       Z     0.00441 -0.01157 -0.02135  0.02003  0.00714  0.00848
    N4       X    -0.00375  0.00163 -0.00222  0.01982  0.01169  0.00154
    N4       Y    -0.00750  0.01720  0.03767 -0.01340 -0.00336 -0.00203
    N4       Z     0.00603 -0.01832 -0.03306  0.02723  0.00864  0.00019
    C5       X    -0.00047 -0.00826 -0.02602  0.02454  0.00739 -0.01363
    C5       Y     0.00716 -0.01299 -0.02780  0.00658 -0.00197  0.01195
    C5       Z     0.00304 -0.01303 -0.02131  0.02590  0.00991 -0.00240
    C6       X     0.00677 -0.02248 -0.07979  0.02805 -0.00444 -0.01476
    C6       Y     0.00810 -0.01927 -0.02680  0.01838  0.00638  0.00935
    C6       Z    -0.01004  0.01848  0.04035  0.00044  0.00762 -0.00023
    C7       X     0.00213 -0.00803 -0.02621  0.01509  0.00225 -0.00729
    C7       Y     0.00789 -0.01655 -0.04098  0.01387 -0.00098  0.00523
    C7       Z     0.00566 -0.01465 -0.02763  0.02043  0.00561 -0.00069
    N8       X     0.00055  0.00126 -0.01849 -0.00035 -0.00475  0.00270
    N8       Y    -0.00670  0.01423  0.03965 -0.01119  0.00208 -0.00369
    N8       Z    -0.00943  0.02490  0.05531 -0.02197 -0.00048  0.00381
    H9       X     0.01277 -0.03169 -0.13988  0.02799 -0.01687 -0.00293
    H9       Y    -0.00192  0.00461  0.03315  0.00145  0.00860  0.00780
    H9       Z    -0.01884  0.04081  0.08650 -0.01707  0.00664  0.00110
    H10      X     0.00900 -0.02556 -0.08695  0.03535 -0.00488 -0.02167
    H10      Y     0.02100 -0.05205 -0.10627  0.04212  0.00397  0.00961
    H10      Z    -0.01437  0.03004  0.06890 -0.00639  0.00856 -0.00231
[...]
    H54      Z    -0.00277  0.00203 -0.05589  0.00680 -0.00624 -0.00208
    H55      X     0.00325 -0.00438 -0.00087 -0.00451  0.00879  0.00074
    H55      Y     0.02440 -0.02820 -0.00567 -0.03174  0.06464  0.00693
    H55      Z    -0.09948  0.11505  0.02307  0.12901 -0.26312 -0.02586
    H56      X     0.11846 -0.16853 -0.02674 -0.16167  0.32384  0.02678
    H56      Y     0.03575 -0.05176 -0.00817 -0.04963  0.10002  0.00851
    H56      Z    -0.02435  0.03362  0.00539  0.03237 -0.06530 -0.00515
    H57      X     0.05972 -0.16796 -0.01720 -0.07107  0.29437  0.02360
    H57      Y    -0.05857  0.16664  0.01674  0.07037 -0.29094 -0.02323
    H57      Z     0.00155 -0.00605 -0.00111 -0.00220  0.01008  0.00057
    H58      X     0.10676 -0.21905 -0.02012 -0.12641  0.39995  0.03296
    H58      Y     0.05537 -0.11225 -0.01066 -0.06572  0.20650  0.01707
    H58      Z    -0.04514  0.09245  0.00809  0.05294 -0.16736 -0.01386
  
  vibration #          163      164      165      166      167      168
                  -------- -------- -------- -------- -------- --------
  frequencies      3133.68  3135.40  3137.75  3163.79  3259.94  3587.84
  intensities        10.39    12.65     8.21     0.52     0.41    85.65
  reduc. mass         0.60     0.60     0.60     0.52     0.57     0.94
  force const         3.45     3.45     3.51     3.05     3.57     7.13
    Rh1      X    -0.00001  0.00001  0.00000 -0.00004  0.00003 -0.00000
    Rh1      Y     0.00001 -0.00000  0.00000 -0.00005 -0.00002 -0.00001
    Rh1      Z    -0.00000 -0.00000  0.00000 -0.00001 -0.00004 -0.00001
    O2       X     0.00000  0.00001  0.00003  0.00004 -0.00002  0.00138
    O2       Y    -0.00000 -0.00002 -0.00000  0.00005  0.00002 -0.00009
    O2       Z     0.00000 -0.00002  0.00002  0.00011 -0.00004  0.00036
    C3       X    -0.00002  0.00004 -0.00004 -0.00020  0.00007  0.00080
    C3       Y     0.00000  0.00005  0.00001 -0.00012 -0.00019 -0.00001
    C3       Z    -0.00008  0.00080  0.00010 -0.00068 -0.00028 -0.00244
    N4       X    -0.00000 -0.00001  0.00002 -0.00007 -0.00014 -0.06349
    N4       Y    -0.00001 -0.00011 -0.00001  0.00021 -0.00007 -0.00188
    N4       Z    -0.00001 -0.00004 -0.00002  0.00011 -0.00041 -0.03216
    C5       X     0.00005 -0.00004 -0.00001  0.00194 -0.00050  0.00037
    C5       Y    -0.00001 -0.00006 -0.00001  0.00329 -0.00062  0.00038
    C5       Z    -0.00001  0.00007  0.00007  0.00156  0.00049  0.00066
    C6       X     0.00002  0.00004 -0.00000 -0.00117 -0.02425  0.00005
    C6       Y     0.00029 -0.00004 -0.00009 -0.06520 -0.01114  0.00021
    C6       Z     0.00002 -0.00004 -0.00006 -0.00125  0.09047  0.00033
    C7       X    -0.00004 -0.00008 -0.00009  0.00026  0.00019  0.00006
    C7       Y    -0.00003  0.00013  0.00004  0.00018  0.00019 -0.00012
    C7       Z     0.00003  0.00006 -0.00004 -0.00027  0.00005 -0.00005
    N8       X     0.00002  0.00001 -0.00005 -0.00017  0.00006 -0.00002
    N8       Y     0.00001  0.00011  0.00007 -0.00013  0.00001  0.00006
    N8       Z    -0.00002 -0.00000 -0.00015  0.00016 -0.00009 -0.00005
    H9       X    -0.00055  0.00004  0.00012  0.13990  0.10013 -0.00039
    H9       Y    -0.00233  0.00035  0.00057  0.53616  0.39855 -0.00041
    H9       Z     0.00233 -0.00031 -0.00059 -0.53703 -0.38677 -0.00030
    H10      X     0.00101 -0.00024 -0.00026 -0.14775  0.18822 -0.00009
    H10      Y    -0.00083  0.00027  0.00026  0.19290 -0.25749  0.00049
    H10      Z    -0.00226  0.00070  0.00102  0.53546 -0.68271  0.00038
    H11      X     0.00005  0.00022  0.00000  0.00057  0.00016  0.84760
    H11      Y    -0.00001  0.00019 -0.00002 -0.00100  0.00013  0.02054
    H11      Z     0.00004  0.00025  0.00008 -0.00138 -0.00066  0.45025
    H12      X     0.00009 -0.00088 -0.00005  0.00079  0.00022 -0.00120
    H12      Y     0.00007 -0.00061 -0.00009  0.00043  0.00008  0.00048
    H12      Z     0.00088 -0.00929 -0.00106  0.00595  0.00146  0.01072
    P13      X    -0.00005  0.00001 -0.00010 -0.00001 -0.00001 -0.00002
    P13      Y    -0.00005 -0.00000 -0.00006 -0.00000  0.00000 -0.00000
    P13      Z     0.00004  0.00000  0.00001  0.00000  0.00000 -0.00002
    P14      X    -0.00001 -0.00006 -0.00004  0.00000 -0.00001  0.00001
    P14      Y    -0.00001 -0.00003 -0.00001  0.00004  0.00000  0.00002
    P14      Z     0.00000 -0.00001  0.00003  0.00002  0.00004 -0.00001
    C15      X    -0.00021 -0.00004 -0.00035  0.00003  0.00000  0.00000
    C15      Y    -0.00011 -0.00005  0.00011  0.00000  0.00001  0.00000
    C15      Z     0.00010  0.00017 -0.00076 -0.00000  0.00000  0.00001
    C16      X     0.00000  0.00027 -0.00442 -0.00013  0.00001  0.00000
    C16      Y    -0.00004 -0.00002 -0.00030  0.00007 -0.00002 -0.00000
    C16      Z     0.00001 -0.00009  0.00125  0.00004 -0.00001 -0.00000
    H17      X     0.00244 -0.00004  0.00029  0.00081 -0.00034  0.00001
    H17      Y     0.00022  0.00004 -0.00002 -0.00020 -0.00008  0.00010
    H17      Z     0.00004  0.00003 -0.00008 -0.00005  0.00002 -0.00037
    H18      X    -0.00038 -0.00011 -0.00009  0.00326  0.00159 -0.00024
    H18      Y    -0.00020  0.00024 -0.00005  0.00865  0.00116  0.00015
    H18      Z     0.00019  0.00008 -0.00005  0.00018 -0.00117 -0.00041
    C19      X    -0.00318  0.00001 -0.00010 -0.00002 -0.00002 -0.00001
    C19      Y     0.00277  0.00001 -0.00004  0.00002  0.00001 -0.00001
    C19      Z    -0.00226  0.00000 -0.00010 -0.00001 -0.00002  0.00000
    C20      X    -0.00025  0.00035 -0.00261 -0.00005  0.00007  0.00003
    C20      Y     0.00014 -0.00032  0.00237  0.00002 -0.00002  0.00000
    C20      Z    -0.00007  0.00035 -0.00266 -0.00002  0.00003  0.00002
    C21      X     0.00001 -0.00004 -0.00002 -0.00000 -0.00000 -0.00000
    C21      Y    -0.00003 -0.00012 -0.00002  0.00004  0.00000  0.00001
    C21      Z     0.00003  0.00024  0.00003 -0.00002  0.00002 -0.00002
    C22      X     0.00000  0.00090  0.00013 -0.00004 -0.00001 -0.00002
    C22      Y    -0.00001 -0.00282 -0.00038  0.00004  0.00000  0.00001
    C22      Z     0.00001  0.00338  0.00044 -0.00005 -0.00000 -0.00001
    C23      X    -0.00000  0.00036  0.00004 -0.00001 -0.00000 -0.00001
    C23      Y    -0.00002 -0.00214 -0.00022  0.00000 -0.00001  0.00003
    C23      Z     0.00000  0.00074  0.00010 -0.00003  0.00000 -0.00002
    H24      X     0.00007  0.00351  0.00034  0.00004  0.00003 -0.00003
    H24      Y     0.00028  0.01278  0.00112  0.00023  0.00010 -0.00021
    H24      Z     0.00007  0.00304  0.00024  0.00009  0.00002  0.00001
    H25      X    -0.00003 -0.00374 -0.00042  0.00006 -0.00002  0.00006
    H25      Y     0.00004  0.01086  0.00129 -0.00017  0.00005 -0.00004
    H25      Z    -0.00007 -0.01629 -0.00198  0.00024 -0.00007  0.00022
    C26      X    -0.00000  0.00006 -0.00001  0.00002  0.00000  0.00000
    C26      Y    -0.00001 -0.00025 -0.00000 -0.00001 -0.00001  0.00001
    C26      Z     0.00002  0.00054  0.00006 -0.00003  0.00000  0.00000
    H27      X     0.00011  0.00240  0.00045 -0.00031 -0.00003  0.00002
    H27      Y    -0.00002 -0.00067 -0.00015  0.00013  0.00003 -0.00001
    H27      Z    -0.00015 -0.00340 -0.00067  0.00049  0.00006 -0.00006
    H28      X    -0.00006 -0.00248 -0.00020  0.00001 -0.00003  0.00004
    H28      Y     0.00015  0.00381  0.00021  0.00002  0.00008 -0.00012
    H28      Z    -0.00013 -0.00401 -0.00022 -0.00004 -0.00007  0.00008
    C29      X    -0.00041  0.00022 -0.00150 -0.00008  0.00003 -0.00002
    C29      Y     0.00044 -0.00017  0.00125  0.00006 -0.00002 -0.00000
    C29      Z    -0.00020 -0.00001  0.00001  0.00001 -0.00001 -0.00000
    H30      X     0.00303 -0.00148  0.01003  0.00073 -0.00035 -0.00004
    H30      Y    -0.00108  0.00041 -0.00267 -0.00023  0.00012  0.00006
    H30      Z    -0.00205  0.00084 -0.00561 -0.00052  0.00028  0.00011
    H31      X     0.00296 -0.00124  0.00906  0.00034 -0.00007  0.00004
    H31      Y    -0.00433  0.00112 -0.00806 -0.00045  0.00016 -0.00003
    H31      Z     0.00404 -0.00141  0.01030  0.00041 -0.00008  0.00003
    C32      X    -0.00125  0.00003 -0.00029 -0.00011  0.00003  0.00000
    C32      Y     0.00034 -0.00004  0.00024  0.00007 -0.00003 -0.00000
    C32      Z    -0.00207  0.00003 -0.00041 -0.00012  0.00003 -0.00000
    H33      X     0.01296 -0.00037  0.00275  0.00079 -0.00008 -0.00001
    H33      Y    -0.01323  0.00054 -0.00409 -0.00108  0.00029 -0.00001
    H33      Z     0.00836 -0.00038  0.00279  0.00068 -0.00013 -0.00002
    H34      X     0.00698 -0.00001  0.00120  0.00036 -0.00007  0.00001
    H34      Y     0.00794 -0.00003  0.00162  0.00027  0.00006  0.00005
    H34      Z     0.01259 -0.00006  0.00264  0.00052  0.00004  0.00008
    C35      X     0.00015 -0.00009  0.00000  0.00002  0.00000 -0.00001
    C35      Y    -0.00068 -0.00001 -0.00001  0.00005  0.00001  0.00000
    C35      Z    -0.00018  0.00024 -0.00008  0.00000  0.00001  0.00000
    H36      X     0.00056 -0.00016  0.00003 -0.00008 -0.00001 -0.00004
    H36      Y     0.00645 -0.00092  0.00050 -0.00054 -0.00013 -0.00005
    H36      Z     0.00212 -0.00027  0.00014 -0.00021 -0.00005 -0.00004
    H37      X    -0.00033 -0.00040  0.00012  0.00002 -0.00002  0.00005
    H37      Y     0.00136  0.00122 -0.00052 -0.00007  0.00005 -0.00009
    H37      Z    -0.00191 -0.00148  0.00062  0.00006 -0.00007  0.00012
    H38      X    -0.00203  0.00175 -0.00014 -0.00022 -0.00003  0.00005
    H38      Y     0.00033 -0.00034  0.00006  0.00004  0.00000 -0.00000
    H38      Z     0.00194 -0.00148  0.00019  0.00015  0.00000 -0.00005
    C39      X     0.00001 -0.01937 -0.00228 -0.00001 -0.00001 -0.00000
    C39      Y    -0.00002  0.01105  0.00143  0.00006 -0.00002  0.00004
    C39      Z    -0.00009  0.08464  0.00978 -0.00009  0.00004 -0.00005
    H40      X     0.00007 -0.06401 -0.00719  0.00018 -0.00008  0.00017
    H40      Y    -0.00029  0.28978  0.03248 -0.00083  0.00025 -0.00000
    H40      Z     0.00025 -0.25681 -0.02864  0.00077 -0.00029  0.00038
    H41      X     0.00019 -0.09997 -0.01182  0.00005  0.00003 -0.00005
    H41      Y     0.00038 -0.20215 -0.02394  0.00004  0.00009 -0.00043
    H41      Z     0.00014 -0.06236 -0.00745 -0.00001  0.00001  0.00002
    H42      X    -0.00040  0.39097  0.04583 -0.00021  0.00014 -0.00002
    H42      Y     0.00021 -0.21872 -0.02563  0.00016 -0.00007  0.00002
    H42      Z     0.00071 -0.68906 -0.08060  0.00035 -0.00025  0.00018
    C43      X    -0.00031  0.00298 -0.02324  0.00000 -0.00002  0.00000
    C43      Y     0.00006  0.00150 -0.01449  0.00004  0.00000  0.00001
    C43      Z    -0.00032  0.00963 -0.08309  0.00012 -0.00003  0.00000
    H44      X     0.00085 -0.02894  0.25395 -0.00044  0.00008  0.00006
    H44      Y     0.00125 -0.04199  0.36229 -0.00050  0.00015 -0.00003
    H44      Z     0.00255 -0.08084  0.70032 -0.00106  0.00023 -0.00003
    H45      X     0.00236 -0.03040  0.24284 -0.00003  0.00019 -0.00000
    H45      Y    -0.00217  0.02675 -0.21415  0.00001 -0.00014 -0.00002
    H45      Z     0.00162 -0.01889  0.14922  0.00004  0.00012 -0.00002
    H46      X     0.00064  0.02387 -0.21871  0.00050 -0.00006 -0.00009
    H46      Y     0.00002 -0.00215  0.02061 -0.00004 -0.00001 -0.00002
    H46      Z    -0.00057 -0.01516  0.14241 -0.00038  0.00002  0.00009
    C47      X    -0.05916 -0.00009  0.00012 -0.00033 -0.00004 -0.00000
    C47      Y     0.05463  0.00008 -0.00024  0.00024  0.00001 -0.00000
    C47      Z     0.03609  0.00007 -0.00035  0.00002 -0.00006 -0.00001
    H48      X     0.58383  0.00102 -0.00302  0.00204 -0.00016 -0.00009
    H48      Y    -0.30263 -0.00053  0.00149 -0.00103  0.00008  0.00002
    H48      Z    -0.49012 -0.00085  0.00245 -0.00184  0.00016  0.00002
    H49      X     0.24843  0.00028  0.00032  0.00224  0.00041  0.00005
    H49      Y    -0.18064 -0.00020 -0.00036 -0.00155 -0.00038 -0.00006
    H49      Z     0.23221  0.00027  0.00020  0.00201  0.00030  0.00001
    H50      X    -0.13010 -0.00018  0.00128 -0.00031  0.00017  0.00005
    H50      Y    -0.17000 -0.00022  0.00184 -0.00027  0.00018  0.00008
    H50      Z    -0.17015 -0.00023  0.00172 -0.00032  0.00020  0.00008
    H51      X    -0.00005 -0.00016  0.00002  0.00003  0.00001 -0.00019
    H51      Y     0.00029  0.00179  0.00028 -0.00009  0.00021 -0.00007
    H51      Z    -0.00036 -0.00200 -0.00039  0.00011 -0.00029  0.00028
    H52      X     0.00229 -0.00441  0.03262  0.00015 -0.00029  0.00005
    H52      Y    -0.00155  0.00361 -0.02689  0.00003  0.00006  0.00003
    H52      Z     0.00154 -0.00331  0.02457  0.00020 -0.00052 -0.00005
    H53      X     0.03399 -0.00009  0.00098  0.00029  0.00010  0.00002
    H53      Y    -0.02586  0.00002 -0.00039 -0.00026 -0.00003  0.00004
    H53      Z     0.02779 -0.00007  0.00076  0.00014  0.00017  0.00005
    H54      X    -0.00002 -0.00744 -0.00098  0.00017  0.00000  0.00007
    H54      Y     0.00007  0.03426  0.00472 -0.00018  0.00007 -0.00001
    H54      Z    -0.00009 -0.03452 -0.00455  0.00043 -0.00002  0.00013
    H55      X     0.00007 -0.00001 -0.00018 -0.00004  0.00001  0.00006
    H55      Y     0.00016  0.00049 -0.00265  0.00003 -0.00004 -0.00006
    H55      Z    -0.00095 -0.00224  0.01032 -0.00018  0.00001  0.00004
    H56      X     0.00238  0.00068  0.00419 -0.00030 -0.00004 -0.00002
    H56      Y     0.00015  0.00029  0.00133 -0.00012 -0.00002 -0.00002
    H56      Z    -0.00050 -0.00011 -0.00047  0.00005  0.00001 -0.00001
    H57      X    -0.00014 -0.00141  0.01689  0.00079  0.00000  0.00003
    H57      Y     0.00001  0.00142 -0.01614 -0.00076 -0.00004 -0.00003
    H57      Z     0.00001 -0.00026  0.00051 -0.00019  0.00005  0.00004
    H58      X     0.00044 -0.00273  0.03644  0.00058  0.00001 -0.00003
    H58      Y     0.00030 -0.00131  0.01927  0.00033  0.00001 -0.00002
    H58      Z    -0.00011  0.00053 -0.01599 -0.00027 -0.00002  0.00004
  
  Number of imaginary frequencies:   1
   
  Writing vibrational animation data to 6RR-Me-BPEpro-RConformation1fromJCTCSI_isomer5.vib
  Writing vibrational spectrum data to 6RR-Me-BPEpro-RConformation1fromJCTCSI_isomer5_vib.spm
  rotational symmetry number:  1

  rotational temperatures (K):      0.011910      0.008191      0.007155
   
    1 vibrational frequencies below  10.0 cm-1 not included in zero-point
  energy or thermochemical analysis.  Set freqcut to change the frequency
  cutoff value.

  vibrational temperatures:
       mode:      2        3        4        5        6        7
  temp. (K):    42.16    63.63    72.09    83.23   101.49   118.42
   
       mode:      8        9       10       11       12       13
  temp. (K):   126.19   132.70   151.13   170.09   190.95   203.74
   
       mode:     14       15       16       17       18       19
  temp. (K):   231.50   243.03   276.01   294.33   306.41   311.68
   
       mode:     20       21       22       23       24       25
  temp. (K):   317.41   334.61   348.34   352.28   354.30   360.09
   
       mode:     26       27       28       29       30       31
  temp. (K):   364.11   380.97   383.24   403.03   424.99   475.92
   
       mode:     32       33       34       35       36       37
  temp. (K):   485.49   512.96   545.09   558.31   580.29   601.46
   
       mode:     38       39       40       41       42       43
  temp. (K):   610.00   624.10   656.90   673.79   690.83   695.08
   
       mode:     44       45       46       47       48       49
  temp. (K):   775.77   777.60   820.94   826.74   855.74   860.01
   
       mode:     50       51       52       53       54       55
  temp. (K):   861.80   911.64   922.03   948.52   996.09   998.02
   
       mode:     56       57       58       59       60       61
  temp. (K):  1033.82  1074.05  1153.07  1169.26  1200.20  1205.91
   
       mode:     62       63       64       65       66       67
  temp. (K):  1232.52  1235.53  1289.97  1295.01  1340.68  1353.41
   
       mode:     68       69       70       71       72       73
  temp. (K):  1354.79  1363.52  1364.64  1439.43  1441.89  1449.23
   
       mode:     74       75       76       77       78       79
  temp. (K):  1450.78  1454.68  1460.34  1475.85  1483.13  1489.13
   
       mode:     80       81       82       83       84       85
  temp. (K):  1549.41  1552.44  1568.07  1578.37  1581.27  1584.81
   
       mode:     86       87       88       89       90       91
  temp. (K):  1613.60  1622.65  1640.07  1643.00  1690.83  1709.48
   
       mode:     92       93       94       95       96       97
  temp. (K):  1715.75  1732.47  1764.55  1765.33  1826.86  1844.84
   
       mode:     98       99      100      101      102      103
  temp. (K):  1853.61  1864.80  1867.75  1873.05  1890.55  1896.45
   
       mode:    104      105      106      107      108      109
  temp. (K):  1900.25  1901.10  1912.27  1958.43  1960.60  1967.50
   
       mode:    110      111      112      113      114      115
  temp. (K):  1968.26  1973.30  2015.23  2051.99  2056.61  2059.79
   
       mode:    116      117      118      119      120      121
  temp. (K):  2062.86  2107.34  2122.20  2152.47  2156.20  2159.00
   
       mode:    122      123      124      125      126      127
  temp. (K):  2160.26  2162.71  2165.67  2167.90  2169.44  2170.72
   
       mode:    128      129      130      131      132      133
  temp. (K):  2173.44  2176.16  2179.63  2181.24  2210.85  2425.80
   
       mode:    134      135      136      137      138      139
  temp. (K):  2835.05  2989.40  3337.79  4355.92  4357.59  4365.45
   
       mode:    140      141      142      143      144      145
  temp. (K):  4367.26  4376.67  4377.12  4381.06  4387.57  4391.34
   
       mode:    146      147      148      149      150      151
  temp. (K):  4391.77  4392.90  4395.94  4403.04  4411.82  4454.45
   
       mode:    152      153      154      155      156      157
  temp. (K):  4459.74  4461.08  4466.64  4470.52  4481.22  4481.53
   
       mode:    158      159      160      161      162      163
  temp. (K):  4485.78  4487.54  4489.45  4489.61  4490.67  4508.67
   
       mode:    164      165      166      167      168
  temp. (K):  4511.14  4514.52  4551.98  4690.32  5162.10
   
   
  Thermodynamic properties calculated assuming an ideal gas

  In the table below, the units for temperature
  are kelvins, the units for U, H, and G are
  kJ/mol and the units for Cv and S are J/(mol K)

  The zero point energy (ZPE):   1303.094 kJ/mol
  is not included in U, H, or G in the table below
  
 
  =============================================================================
  Thermodynamic properties for P =     1.00 atm, calculated at   1 temperatures


  T =   298.15 K, P =     1.00 atm
   
                  U         Cv          S          H          G        ln(Q)
              =========  =========  =========  =========  =========  =========
  trans.          3.718     12.472    185.189      6.197    -49.017   19.77309
  rot.            3.718     12.472    147.219      3.718    -40.175   16.20630
  vib.           67.242    436.152    427.165     67.242    -60.117   24.25097
  elec.           0.000      0.000      0.000      0.000      0.000    0.00000
  ----------------------------------------------------------------------------
  total          74.679    461.096    759.572     77.158   -149.309   60.23037
   
   Total internal energy, Utot(SCFE + ZPE + U):   -1682.690927 hartrees
              Total enthalpy, Htot (Utot + pV):   -1682.689983 hartrees
    Total Gibbs free energy, Gtot (Htot - T*S):   -1682.776240 hartrees
   
  Peak memory usage:   1682 Mb
  
  end of program freq
   
 Time(freq)  user:        1.5  user+sys:        1.5  wallclock:        3.3

 Total cpu seconds     user:   16151.737   user+sys:   16151.737
  
 Total elapsed time:    5284 seconds

Job 6RR-Me-BPEpro-RConformation1fromJCTCSI_isomer5 completed on seskscpn120.prim.scp at Wed Oct 18 11:49:07 2023
