Job 7RR-Me-BPEpro-RConformation2fromJCTCSI_isomer6 started on seskscpn208.prim.scp at Wed Oct 18 10:21:03 2023
jobid: seskscpn324-0-652fb170

  +--------------------------------------------------------------------+
  |  Jaguar version 10.6, release  12                                  |
  |                                                                    |
  |  Copyright Schrodinger, Inc.                                       |
  |  All Rights Reserved.                                              |
  |                                                                    |
  |  The following have contributed to Jaguar (listed alphabetically): |
  |  Mike Beachy, Art Bochevarov, Dale Braden, Yixiang Cao,            |
  |  Alan Chien, Chris Cortis, Rich Friesner, Bill Goddard,            |
  |  Hod Greeley, Tom Hughes, Leif Jacobson, Jean-Marc Langlois,       |
  |  Daniel Levine, Daniel Mainz, Rob Murphy, Dean Philipp,            |
  |  Tom Pollard, Murco Ringnalda, Mark Watson, Haoyu Yu.              |
  |                                                                    |
  |  Use of this program should be acknowledged in publications as:    |
  |                                                                    |
  |  Jaguar, version 10.6, Schrodinger, Inc., New York, NY, 2019.      |
  |                                                                    |
  |  A. D. Bochevarov, E. Harder, T. F. Hughes, J. R. Greenwood,       |
  |  D. A. Braden, D. M. Philipp, D. Rinaldo, M. D. Halls,             |
  |  J. Zhang, R. A. Friesner, "Jaguar: A High-Performance Quantum     |
  |  Chemistry Software Program with Strengths in Life and Materials   |
  |  Sciences", Int. J. Quantum Chem., 2013, 113(18), 2110-2142.       |
  +--------------------------------------------------------------------+
  
  start of program pre
  
  Job name: 7RR-Me-BPEpro-RConformation2fromJCTCSI_isomer6
  Executables used: /opt/scp/software/schrodinger/2019-4/jaguar-v10.6/bin/Linux-x86_64
  Temporary files : /scratch/kzdq760/7RR-Me-BPEpro-RConformation2fromJCTCSI_isomer6#seskscpn324-0-652fb170
  Maestro file (input):  7RR-Me-BPEpro-RConformation2fromJCTCSI_isomer6.mae
  Maestro file (output): 7RR-Me-BPEpro-RConformation2fromJCTCSI_isomer6.01.mae
  
 Contents of input file: &gen section only
 ----------------Contents start----------------
&gen
isymm=0
basis=LACVP**
gdftgrad=-13
gdftmed=-13
icanorb=1
molchg=1
gdftfine=-13
dftname=B3LYP
eunit=2
ifreq=1
ncanorb=522
iacc=1
&
 -----------------Contents end-----------------
 
  basis set:             lacvp**                         
  net molecular charge:    1
  multiplicity:            1
  
  keygrid settings 
    wispc.....   7.500E-01
    ldens.....   0
    denspc....   7.500E-01
  
   grid     daf set  nls  grid set  Q type
  ------    -------  ---  --------  ------
  coarse       1      1       1        1
  medium       2      2       2        1
  fine         3      2       3        0
  ultrafine    4      2       4        1
  charge       0      1       0        1
  gradient     5      2       4        1
  density      0      1       0        0
  DFT-fine     0      1     -13        0
  DFT-med.     0      1     -13        0
  DFT-grad     0      1     -13        0
  DFT-der2     0      1      -8        0
  DFT-cphf     0      1      -9        0
  LMP2-enrg    4      2       4        1
  LMP2-grad    5      2       2        1
  DFT-cphf2    0      1     -15        0
  PBF-dens     0      1       0        0
  plotting     0      1       0        0
  Rel-grad     0      1     -17        0
  
  idftgrdm  100
  ndftgrdm   50    0    0
  idftgrdf  111
  ndftgrdf   85    0    0
  idftgrdg  111
  ndftgrdg   80    3    0
  idftgrdu  433
  ndftgrdu  105    0    0
  idftgrdd  433
  ndftgrdd  105    0    0
  idftgrdc  433
  ndftgrdc   26    0    0
  idftgrdp  433
  ndftgrdp   18    0    0
  
  Using up to   3 threads per process
  
  This run will use ECP on 1 atom
  number of basis functions....          522
  
 Input geometry:
                                   angstroms
  atom               x                 y                 z
  Rh1           0.0000000000      0.0000000000      0.0000000000 
  O2            0.0000000000      0.0000000000      2.2260400000 
  C3            1.1317500000      0.0000000000      2.7489500000 
  N4            2.2648400000     -0.1160500000      2.0433900000 
  C5            2.2277600000     -0.4097800000      0.6316800000 
  C6            1.6056800000     -1.6211700000      0.2221000000 
  C7            3.2231800000      0.2260200000     -0.1642500000 
  N8            4.0589400000      0.7221600000     -0.8080500000 
  H9            1.3726800000     -2.3494400000      0.9930000000 
  H10           1.8836400000     -2.0403300000     -0.7378400000 
  H11           3.1569700000     -0.1033100000      2.5256100000 
  H12           1.2483400000      0.1039200000      3.8334200000 
  P13          -0.2293800000      0.1350200000     -2.2846900000 
  P14          -0.5831100000      2.3317900000      0.0583900000 
  C15          -0.6857400000      1.9026300000     -2.6882100000 
  C16          -1.4867900000      2.5603200000     -1.5554400000 
  H17          -1.5552900000     -0.1034100000     -0.0927800000 
  H18          -0.0978200000     -1.6064900000     -0.1108800000 
  C19          -1.4774600000     -0.9814400000     -3.1531800000 
  C20           1.2269700000     -0.3418200000     -3.3867800000 
  C21          -1.7387400000      2.8008700000      1.4564400000 
  C22           0.5337500000      3.8492600000      0.2415300000 
  C23           0.0530700000      4.5184200000      1.5527000000 
  H24           0.3193000000      5.5806500000      1.5546300000 
  H25           0.5737300000      4.0594200000      2.4039600000 
  C26          -1.4590800000      4.2997900000      1.6951000000 
  H27          -1.8244100000      4.6070100000      2.6810300000 
  H28          -2.0010100000      4.9013900000      0.9530500000 
  C29           0.5811500000     -1.1376300000     -4.5452400000 
  H30           1.3285700000     -1.7777100000     -5.0255700000 
  H31           0.2206400000     -0.4385800000     -5.3114700000 
  C32          -0.5943700000     -1.9425600000     -3.9804400000 
  H33          -0.2252600000     -2.7512600000     -3.3350500000 
  H34          -1.1872000000     -2.4147600000     -4.7705900000 
  C35          -3.2125900000      2.4339400000      1.2644100000 
  H36          -3.3447800000      1.3628400000      1.0824700000 
  H37          -3.6671300000      2.9873300000      0.4360900000 
  H38          -3.7751800000      2.6833100000      2.1700600000 
  C39           2.0399500000      3.5872400000      0.1973400000 
  H40           2.3505500000      2.9111000000      1.0001600000 
  H41           2.5854900000      4.5280500000      0.3277900000 
  H42           2.3633200000      3.1461500000     -0.7488200000 
  C43           2.1413600000      0.8003200000     -3.8429800000 
  H44           2.6037000000      1.3258100000     -3.0034100000 
  H45           1.6067100000      1.5217600000     -4.4691300000 
  H46           2.9551600000      0.3880100000     -4.4486000000 
  C47          -2.5172600000     -1.6842500000     -2.2805300000 
  H48          -3.1476800000     -0.9763100000     -1.7353500000 
  H49          -2.0443200000     -2.3427200000     -1.5462900000 
  H50          -3.1712900000     -2.2949800000     -2.9118800000 
  H51          -1.3486300000      2.2309200000      2.3093000000 
  H52           1.8204900000     -1.0372500000     -2.7808400000 
  H53          -1.9945900000     -0.3110200000     -3.8535800000 
  H54           0.2591200000      4.4989800000     -0.6003400000 
  H55           0.2525000000      2.4432400000     -2.8501800000 
  H56          -1.2379900000      1.9282800000     -3.6340400000 
  H57          -2.4686000000      2.0881900000     -1.4510000000 
  H58          -1.6521600000      3.6221200000     -1.7664400000 
   
  principal moments of inertia:
        amu*angstrom^2:     2062.04781     3000.52958     3404.91352
                g*cm^2: 3.42411052E-37 4.98249596E-37 5.65399121E-37
   
  rotational constants:
               cm^(-1):      0.00817519      0.00561822      0.00495097
                   GHz:      0.24508598      0.16842994      0.14842639
   
  Molecular weight:     459.12 amu
   
  Stoichiometry: RhC18P2N2H34O
  Molecular Point Group: C1      
  Point Group used: C1 (symmetry turned off)
  
  nuclear repulsion energy.......    3030.277706325 hartrees
  
  Detected an organometallic with only one TM atom. 
  
  Oxidation state on metal       1 is     3
  Formal multiplet on metal      1 is     1
  Formal charge on ligand        4 is    -1
  Formal multiplet on ligand     4 is     1
  Formal charge on ligand        5 is    -1
  Formal multiplet on ligand     5 is     1
  
 
  Will use High-Quality Initial guess for organometallics
       including d-d repulsion (iguess=30)
 
 Non-default options chosen:
   SCF calculation type: DFT(b3lyp)                  
   DFT=Becke_3_Parameter/HF+Slater+Becke88+VWN+LYP (B3LYP)
   Vibrational frequencies and related properties will be computed
      from analytic second derivatives
   IR intensities will be computed
   Thermochemical properties will be computed
   Thermochemical data will be printed in Joules
   Molecular symmetry not used
   Highest accuracy cutoffs used in SCF
  
 Temporary integer options set:
     21= -1  73=  2
  
   Fixing number of canonical orbitals to remain constant.
   Number of canonical orbitals to use:   522
  
  Peak memory usage:   1276 Mb
  
  end of program pre
   
 Time(pre)  user:        1.7  user+sys:        1.7  wallclock:        1.3
  
  start of program onee
  
  smallest eigenvalue of S:    1.105E-03
  Set cut 20/10 to   1.103836075562893E-003
  number of canonical orbitals.....          522
  Peak memory usage:   1316 Mb
  
  end of program onee
   
 Time(onee)  user:        1.9  user+sys:        1.9  wallclock:        0.8
  
  start of program hfig
  
  initial wavefunction generated automatically from atomic wavefunctions
  Only one state below 0.010000
  Skip d-d repulsion considerations 
 
  Irreducible     Total no   No of occupied orbitals 
  representation  orbitals   Shell_1  Shell_2    ...
  No Symm          522        105
  ------------------------
  Orbital occupation/shell    1.000
 
  Peak memory usage:   1244 Mb
  
  end of program hfig
   
 Time(hfig)  user:        0.9  user+sys:        0.9  wallclock:        0.6
  
  start of program probe
  
  Peak memory usage:   1233 Mb
  
  end of program probe
   
 Time(probe)  user:        0.8  user+sys:        0.8  wallclock:        0.3
  
  start of program grid
  
   grid     grid set  grid #  grid sym
  ------    --------  ------  --------
  coarse        0        0        1
  medium        2        1        1
  fine          0        0        1
  ultrafine     4        2        1
  charge        0        0        1
  gradient      4        2        1
  density       0        0        1
  DFT-fine    -13        3        1
  DFT-med.    -13        3        1
  DFT-grad    -13        3        1
  DFT-der2     -8        4        1
  DFT-cphf     -9        5        1
  LMP2-enrg     4        2        1
  LMP2-grad     2        1        1
  DFT-cphf2   -15        6        1
  PBF-dens      0        0        1
  plotting      0        0        1
  Rel-grad    -17        0        1
  
  number of gridpoints: 
     atom       Rh1       O2       C3       N4       C5       C6       C7
  grid # 1      301      116       83      102       93       82      102
  grid # 2      238      480      298      337      363      268      389
  grid # 3    35544    23820    15816    16030    15816    15816    15816
  grid # 4    32864    23252    13988    14170    13988    13988    13988
  grid # 5     1144      774      748      756      748      748      748
  grid # 6     2168      416      394      406      394      394      394
   
  number of gridpoints: 
     atom        N8       H9      H10      H11      H12      P13      P14
  grid # 1      118      112      108      116      117      612      612
  grid # 2      496      453      442      449      466      429      430
  grid # 3    16030    17074    17074    17074    17074    24032    24032
  grid # 4    14170    15058    15058    15058    15058    23016    23016
  grid # 5      756      786      786      786      786      722      722
  grid # 6      406      420      420      420      420      370      370
   
  number of gridpoints: 
     atom       C15      C16      H17      H18      C19      C20      C21
  grid # 1       80       81      100      101       79       80       80
  grid # 2      300      299      446      440      327      326      328
  grid # 3    15816    15816    17074    17074    15816    15816    15816
  grid # 4    13988    13988    15058    15058    13988    13988    13988
  grid # 5      748      748      786      786      748      748      748
  grid # 6      394      394      420      420      394      394      394
   
  number of gridpoints: 
     atom       C22      C23      H24      H25      C26      H27      H28
  grid # 1       79       92      112      109       91      112      109
  grid # 2      326      278      450      445      279      451      446
  grid # 3    15816    15816    17074    17074    15816    17074    17074
  grid # 4    13988    13988    15058    15058    13988    15058    15058
  grid # 5      748      748      786      786      748      786      786
  grid # 6      394      394      420      420      394      420      420
   
  number of gridpoints: 
     atom       C29      H30      H31      C32      H33      H34      C35
  grid # 1       92      112      109       91      109      112       81
  grid # 2      279      451      446      279      444      450      236
  grid # 3    15816    17074    17074    15816    17074    17074    15816
  grid # 4    13988    15058    15058    13988    15058    15058    13988
  grid # 5      748      786      786      748      786      786      748
  grid # 6      394      420      420      394      420      420      394
   
  number of gridpoints: 
     atom       H36      H37      H38      C39      H40      H41      H42
  grid # 1      105      106      110       81      106      110      105
  grid # 2      442      440      458      234      441      457      440
  grid # 3    17074    17074    17074    15816    17074    17074    17074
  grid # 4    15058    15058    15058    13988    15058    15058    15058
  grid # 5      786      786      786      748      786      786      786
  grid # 6      420      420      420      394      420      420      420
   
  number of gridpoints: 
     atom       C43      H44      H45      H46      C47      H48      H49
  grid # 1       81      103      106      110       79      107      105
  grid # 2      233      432      438      456      238      444      441
  grid # 3    15816    17074    17074    17074    15816    17074    17074
  grid # 4    13988    15058    15058    15058    13988    15058    15058
  grid # 5      748      786      786      786      748      786      786
  grid # 6      394      420      420      420      394      420      420
   
  number of gridpoints: 
     atom       H50      H51      H52      H53      H54      H55      H56
  grid # 1      110      102      102      105      104       99      106
  grid # 2      456      435      432      435      438      431      446
  grid # 3    17074    17074    17074    17074    17074    17074    17074
  grid # 4    15058    15058    15058    15058    15058    15058    15058
  grid # 5      786      786      786      786      786      786      786
  grid # 6      420      420      420      420      420      420      420
   
  number of gridpoints: 
     atom       H57      H58    total
  grid # 1      100      105     7032
  grid # 2      437      444    22812
  grid # 3    17074    17074  1004692
  grid # 4    15058    15058   894244
  grid # 5      786      786    45062
  grid # 6      420      420    25508
   
  Peak memory usage:   1259 Mb
  
  end of program grid
   
 Time(grid)  user:       83.5  user+sys:       83.5  wallclock:       28.6
  
  start of program rwr
  
  Peak memory usage:   1232 Mb
  
  end of program rwr
   
 Time(rwr)  user:       11.3  user+sys:       11.3  wallclock:        5.7
  
  start of program scf
  
 number of electrons..........        210
 number of alpha electrons....        105
 number of beta electrons.....        105
 number of orbitals, total....        522
 number of doubly-occ'd orbs..        105
 number of open shell orbs....          0
 number of occupied orbitals..        105
 number of virtual orbitals...        417
 number of hamiltonians.......          1
 number of shells.............          1
 SCF type: DFT=Becke_3_Parameter/HF+Slater+Becke88+VWN+LYP (B3LYP)
 Energy computed with NOPS off.
 Convergence Criterion:
    Energy (econv):       1.00E-05
    RMS density (dconv):  5.00E-06
  
       i  u  d  i  g                   
       t  p  i  c  r                                 RMS    maximum
       e  d  i  u  i                       energy  density   DIIS  
       r  t  s  t  d       total energy    change  change    error 
  
etot    1  N  N  1  U   -1678.52028776163           3.7E-03  8.6E-02
etot    2  N  Y  1  U   -1681.97301758540  3.5E+00  3.4E-03  5.8E-02
etot    3  N  Y  1  U   -1682.26885066626  3.0E-01  1.9E-03  8.8E-02
etot    4  N  Y  1  U   -1683.06098660427  7.9E-01  1.1E-03  2.4E-02
etot    5  N  Y  1  U   -1683.16446247777  1.0E-01  6.0E-04  1.8E-02
etot    6  N  Y  1  U   -1683.20535531298  4.1E-02  1.8E-04  6.4E-03
etot    7  N  Y  1  U   -1683.21160891231  6.3E-03  5.6E-05  2.2E-03
etot    8  N  Y  1  U   -1683.21256507306  9.6E-04  2.0E-05  8.0E-04
etot    9  N  Y  1  U   -1683.21263715492  7.2E-05  6.7E-06  1.4E-04
etot   10  N  Y  1  U   -1683.21264424763  7.1E-06  3.2E-06  9.4E-05
etot   11  N  N  1  U   -1683.21264578321  1.5E-06  0.0E+00  0.0E+00
  
  
 Energy components, in hartrees:
   (A)  Nuclear repulsion............    3030.27770632522
   (E)  Total one-electron terms.....   -8351.45822644210
   (I)  Total two-electron terms.....    3637.96787433367
   (J)    Coulomb....................    3828.54496694187
   (K)    Exchange+Correlation.......    -190.57709260820
   (L)  Electronic energy............   -4713.49035210843  (E+I)
   (N)  Total energy.................   -1683.21264578321  (A+L)
   (O)  Gas phase energy.............   -1683.21264578321
  
 SCFE: SCF energy: DFT(b3lyp)     -1683.21264578321 hartrees   iterations:  11
  
 
 HOMO energy:    -0.33926
 LUMO energy:    -0.17524
 
  Orbital energies (hartrees): 
   -77.23140   -77.21114   -19.29018   -14.52108   -14.43984   -10.43438
   -10.38421   -10.35818   -10.33414   -10.32485   -10.31960   -10.31740
   -10.31546   -10.31025   -10.30616   -10.29544   -10.29526   -10.29072
   -10.28928   -10.28294   -10.28163   -10.28050   -10.27889    -6.70946
    -6.69071    -4.87088    -4.87029    -4.86949    -4.85231    -4.85168
    -4.84997    -3.26429    -2.07148    -2.06426    -2.05557    -1.19489
    -1.08527    -1.00693    -0.95381    -0.94492    -0.92286    -0.90700
    -0.88287    -0.87702    -0.83183    -0.82463    -0.80849    -0.79712
    -0.76275    -0.75154    -0.74734    -0.74128    -0.72788    -0.71996
    -0.68553    -0.67925    -0.66161    -0.64894    -0.63394    -0.61416
    -0.59195    -0.58796    -0.58391    -0.58136    -0.57575    -0.57069
    -0.56657    -0.55346    -0.54597    -0.54291    -0.53807    -0.53509
    -0.52568    -0.52260    -0.52147    -0.51559    -0.51139    -0.50924
    -0.49925    -0.49194    -0.48662    -0.47936    -0.47591    -0.47345
    -0.46535    -0.46354    -0.45832    -0.45237    -0.44835    -0.44656
    -0.44249    -0.44109    -0.44029    -0.43950    -0.43552    -0.43205
    -0.42961    -0.42660    -0.42174    -0.41143    -0.40392    -0.40076
    -0.39029    -0.38494    -0.33926    -0.17524    -0.16296    -0.13148
    -0.11627    -0.09127    -0.08589    -0.08268    -0.06892    -0.06602
    -0.06055
 
  Peak memory usage:   1735 Mb
  
  end of program scf
   
 Time(scf)  user:      394.5  user+sys:      394.5  wallclock:      143.0
  
  start of program cutabab2
  
  Peak memory usage:   1564 Mb
  
  end of program cutabab2
   
 Time(cutabab2)  user:        1.6  user+sys:        1.6  wallclock:        0.8
  
  start of program der2a
  
  Peak memory usage:   1551 Mb
  
  end of program der2a
   
 Time(der2a)  user:       31.1  user+sys:       31.1  wallclock:       11.2
  
  start of program der2b
  
  Peak memory usage:   1914 Mb
  
  end of program der2b
   
 Time(der2b)  user:     2454.4  user+sys:     2454.4  wallclock:      822.7
  
  start of program der2nda
  
 
  Peak memory usage:    976 Mb
  
  end of program der2nda
   
 Time(der2nda)  user:       13.9  user+sys:       13.9  wallclock:       14.1
  
  start of program der2ndb
  
  Peak memory usage:   1607 Mb
  
  end of program der2ndb
   
 Time(der2ndb)  user:     3002.5  user+sys:     3002.5  wallclock:     1018.5
  
  start of program rwr
  
  Peak memory usage:   1232 Mb
  
  end of program rwr
   
 Time(rwr)  user:       11.5  user+sys:       11.5  wallclock:        6.0
  
  start of program cphfa
  
      11  vectors produced in CPHF
  
     v    i  j  k  i  g
     e    t  c  c  c  r
     c    e  o  o  u  i
     t    r  r  r  t  d       RMS  
  
     1    1  5  2  6  M     5.0E-03
     1    2  5  2  6  M     4.5E-04
     1    3  0  0  6  M     2.4E-04
     1    4  0  0  6  M     9.1E-05
     1    5  0  0  6  M     3.7E-05
  
     v    i  j  k  i  g
     e    t  c  c  c  r
     c    e  o  o  u  i
     t    r  r  r  t  d       RMS  
  
     2    1  5  2  6  M     4.8E-03
     2    2  5  2  6  M     2.7E-04
     2    3  0  0  6  M     1.4E-04
     2    4  0  0  6  M     6.0E-05
     2    5  0  0  6  M     2.5E-05
  
     v    i  j  k  i  g
     e    t  c  c  c  r
     c    e  o  o  u  i
     t    r  r  r  t  d       RMS  
  
     3    1  5  2  6  M     4.8E-03
     3    2  5  2  6  M     2.8E-04
     3    3  0  0  6  M     1.6E-04
     3    4  0  0  6  M     6.6E-05
     3    5  0  0  6  M     3.1E-05
  
     v    i  j  k  i  g
     e    t  c  c  c  r
     c    e  o  o  u  i
     t    r  r  r  t  d       RMS  
  
     4    1  5  2  6  M     5.0E-03
     4    2  5  2  6  M     5.0E-04
     4    3  0  0  6  M     2.0E-04
     4    4  0  0  6  M     9.9E-05
     4    5  0  0  6  M     3.9E-05
  
     v    i  j  k  i  g
     e    t  c  c  c  r
     c    e  o  o  u  i
     t    r  r  r  t  d       RMS  
  
     5    1  5  2  6  M     5.2E-03
     5    2  5  2  6  M     4.4E-04
     5    3  0  0  6  M     2.0E-04
     5    4  0  0  6  M     9.2E-05
     5    5  0  0  6  M     4.6E-05
  
     v    i  j  k  i  g
     e    t  c  c  c  r
     c    e  o  o  u  i
     t    r  r  r  t  d       RMS  
  
     6    1  5  2  6  M     5.2E-03
     6    2  5  2  6  M     2.7E-04
     6    3  0  0  6  M     1.6E-04
     6    4  0  0  6  M     7.1E-05
     6    5  0  0  6  M     3.5E-05
  
     v    i  j  k  i  g
     e    t  c  c  c  r
     c    e  o  o  u  i
     t    r  r  r  t  d       RMS  
  
     7    1  5  2  6  M     5.0E-03
     7    2  5  2  6  M     3.3E-04
     7    3  0  0  6  M     1.3E-04
     7    4  0  0  6  M     5.4E-05
     7    5  0  0  6  M     3.2E-05
  
     v    i  j  k  i  g
     e    t  c  c  c  r
     c    e  o  o  u  i
     t    r  r  r  t  d       RMS  
  
     8    1  5  2  6  M     5.0E-03
     8    2  5  2  6  M     2.1E-04
     8    3  0  0  6  M     9.4E-05
     8    4  0  0  6  M     4.0E-05
  
     v    i  j  k  i  g
     e    t  c  c  c  r
     c    e  o  o  u  i
     t    r  r  r  t  d       RMS  
  
     9    1  5  2  6  M     4.9E-03
     9    2  5  2  6  M     2.5E-04
     9    3  0  0  6  M     1.3E-04
     9    4  0  0  6  M     5.3E-05
     9    5  0  0  6  M     2.6E-05
  
     v    i  j  k  i  g
     e    t  c  c  c  r
     c    e  o  o  u  i
     t    r  r  r  t  d       RMS  
  
    10    1  5  2  6  M     5.1E-03
    10    2  5  2  6  M     3.3E-04
    10    3  0  0  6  M     1.8E-04
    10    4  0  0  6  M     1.1E-04
    10    5  0  0  6  M     3.8E-05
  
     v    i  j  k  i  g
     e    t  c  c  c  r
     c    e  o  o  u  i
     t    r  r  r  t  d       RMS  
  
    11    1  5  2  6  M     5.0E-03
    11    2  5  2  6  M     1.4E-04
    11    3  0  0  6  M     1.2E-04
    11    4  0  0  6  M     4.4E-05
  
  
  Atomic Polar Tensors (au): Total
  =========================
  
  APT for atom Rh1     
  --------------------------------------
       -0.5966      -0.1084      -0.0341
       -0.2446      -0.4469      -0.1577
        0.0315      -0.1096      -0.1669
  --------------------------------------
  
  APT for atom O2      
  --------------------------------------
       -0.8339       0.0493      -0.2894
        0.0343      -0.1597       0.0605
       -0.3561      -0.0252      -1.0314
  --------------------------------------
  
  APT for atom C3      
  --------------------------------------
        1.3108      -0.0409       0.2513
       -0.1150       0.2020       0.0179
       -0.0157      -0.0066       0.6236
  --------------------------------------
  
  APT for atom N4      
  --------------------------------------
       -0.6742      -0.0300       0.0153
       -0.0414      -0.3260       0.0241
        0.2702      -0.0199      -0.3523
  --------------------------------------
  
  APT for atom C5      
  --------------------------------------
       -0.3941       0.2872      -0.0820
       -0.3887       0.3887      -0.0145
       -0.0083       0.0802       0.4479
  --------------------------------------
  
  APT for atom C6      
  --------------------------------------
        0.7660      -0.3429       0.2177
        0.1708       0.0510      -0.0329
        0.2431      -0.0266       0.0898
  --------------------------------------
  
  APT for atom C7      
  --------------------------------------
        0.5331      -0.0254      -0.0449
        0.2370       0.0279      -0.0217
       -0.3650       0.0067      -0.0619
  --------------------------------------
  
  APT for atom N8      
  --------------------------------------
       -0.4982       0.0417      -0.0260
       -0.1044      -0.2400      -0.0196
        0.1444      -0.0365      -0.2446
  --------------------------------------
  
  APT for atom H9      
  --------------------------------------
       -0.0309       0.0996      -0.0064
        0.0353       0.0398       0.0167
       -0.0058       0.0327       0.0206
  --------------------------------------
  
  APT for atom H10     
  --------------------------------------
        0.0394       0.0459       0.0043
        0.0325       0.0519       0.0008
        0.0105      -0.0055       0.0135
  --------------------------------------
  
  APT for atom H11     
  --------------------------------------
        0.2738      -0.0121       0.0607
        0.0435       0.2885      -0.0327
        0.0089      -0.0302       0.1450
  --------------------------------------
  
  APT for atom H12     
  --------------------------------------
        0.0510      -0.0000      -0.1135
        0.0112       0.0888      -0.0310
       -0.0422      -0.0019      -0.0618
  --------------------------------------
  
  APT for atom P13     
  --------------------------------------
        0.6719       0.0881       0.1675
       -0.0533       0.8759       0.1629
        0.1832       0.2416       1.2289
  --------------------------------------
  
  APT for atom P14     
  --------------------------------------
        0.8763      -0.2499       0.0861
       -0.1336       0.9415       0.2283
        0.0488       0.0066       0.7139
  --------------------------------------
  
  APT for atom C15     
  --------------------------------------
       -0.1055      -0.0827      -0.1398
       -0.0394      -0.0552      -0.0159
        0.0337      -0.0697      -0.3119
  --------------------------------------
  
  APT for atom C16     
  --------------------------------------
       -0.1440      -0.0042       0.0238
        0.1218      -0.2820      -0.1163
       -0.0050       0.0236      -0.0534
  --------------------------------------
  
  APT for atom H17     
  --------------------------------------
       -0.3243       0.0473      -0.0521
        0.0164       0.1368       0.0198
        0.0432       0.0395       0.1199
  --------------------------------------
  
  APT for atom H18     
  --------------------------------------
       -0.0157      -0.0258       0.0161
        0.2004      -0.2813      -0.0037
        0.0298       0.0069       0.1578
  --------------------------------------
  
  APT for atom C19     
  --------------------------------------
       -0.0056       0.1182       0.1289
        0.0921       0.0067       0.1279
        0.0309       0.0150      -0.1410
  --------------------------------------
  
  APT for atom C20     
  --------------------------------------
       -0.0172      -0.0908      -0.2874
       -0.0741      -0.1016       0.0208
       -0.0531       0.0076      -0.1399
  --------------------------------------
  
  APT for atom C21     
  --------------------------------------
       -0.0318      -0.1003      -0.0878
        0.0585      -0.2073      -0.0406
       -0.1564       0.1207       0.0381
  --------------------------------------
  
  APT for atom C22     
  --------------------------------------
       -0.1550       0.3182       0.0839
        0.0936      -0.0405       0.0043
       -0.0158       0.0441      -0.0659
  --------------------------------------
  
  APT for atom C23     
  --------------------------------------
        0.0401      -0.0553      -0.0110
       -0.0194      -0.0146      -0.0886
        0.0168       0.1072       0.1613
  --------------------------------------
  
  APT for atom H24     
  --------------------------------------
        0.0182      -0.0464       0.0058
       -0.0497      -0.1165      -0.0457
        0.0229      -0.0654       0.0230
  --------------------------------------
  
  APT for atom H25     
  --------------------------------------
       -0.0271       0.0321      -0.0458
        0.0601       0.0149       0.0880
       -0.0419       0.0163      -0.0565
  --------------------------------------
  
  APT for atom C26     
  --------------------------------------
       -0.0162       0.0368       0.0645
       -0.0489       0.1483       0.0542
        0.1128      -0.1812       0.0341
  --------------------------------------
  
  APT for atom H27     
  --------------------------------------
        0.0134       0.0211       0.0553
        0.0418      -0.0342      -0.0754
        0.0781      -0.0812      -0.0716
  --------------------------------------
  
  APT for atom H28     
  --------------------------------------
       -0.0184       0.0257      -0.0452
        0.0232      -0.0078       0.0260
       -0.0877       0.0960      -0.0287
  --------------------------------------
  
  APT for atom C29     
  --------------------------------------
        0.0358       0.0362       0.2518
       -0.0296       0.0762      -0.0624
        0.0071       0.0319       0.1048
  --------------------------------------
  
  APT for atom H30     
  --------------------------------------
       -0.0320       0.0362       0.0452
        0.0396       0.0004      -0.0866
        0.0451      -0.0635      -0.0501
  --------------------------------------
  
  APT for atom H31     
  --------------------------------------
        0.0141       0.0152      -0.0690
        0.0141      -0.0446       0.0991
       -0.0186       0.0372      -0.0272
  --------------------------------------
  
  APT for atom C32     
  --------------------------------------
        0.0136      -0.1493      -0.0824
       -0.0228       0.0884       0.0337
        0.0205      -0.0816       0.0498
  --------------------------------------
  
  APT for atom H33     
  --------------------------------------
        0.0083       0.0538      -0.0057
        0.0239      -0.0219       0.0546
       -0.0149       0.1149      -0.0277
  --------------------------------------
  
  APT for atom H34     
  --------------------------------------
        0.0003      -0.0462      -0.0336
       -0.0479      -0.0129      -0.0873
       -0.0488      -0.0862      -0.0352
  --------------------------------------
  
  APT for atom C35     
  --------------------------------------
        0.0678      -0.0273      -0.0147
       -0.0017       0.0141      -0.0629
        0.1435      -0.0616       0.0283
  --------------------------------------
  
  APT for atom H36     
  --------------------------------------
        0.0611      -0.0197      -0.0226
       -0.0280      -0.0986      -0.0302
       -0.0548      -0.0326       0.0694
  --------------------------------------
  
  APT for atom H37     
  --------------------------------------
        0.0188      -0.0048      -0.0167
        0.0304       0.0096       0.0769
       -0.0846       0.0761      -0.0371
  --------------------------------------
  
  APT for atom H38     
  --------------------------------------
       -0.0469       0.0284       0.0734
        0.0403       0.0718      -0.0428
        0.0883      -0.0391      -0.0459
  --------------------------------------
  
  APT for atom C39     
  --------------------------------------
        0.0460       0.0676       0.0083
       -0.0595       0.0441      -0.0299
        0.0470      -0.0366       0.0286
  --------------------------------------
  
  APT for atom H40     
  --------------------------------------
        0.0122       0.0087       0.0118
        0.0477       0.0165       0.0856
       -0.0270       0.0989      -0.0366
  --------------------------------------
  
  APT for atom H41     
  --------------------------------------
       -0.0202      -0.0751      -0.0129
       -0.0844      -0.0776      -0.0245
       -0.0285      -0.0255       0.0829
  --------------------------------------
  
  APT for atom H42     
  --------------------------------------
        0.0060       0.0135       0.0180
        0.0487       0.0683      -0.0557
        0.0277      -0.0728      -0.0571
  --------------------------------------
  
  APT for atom C43     
  --------------------------------------
        0.0043      -0.0576       0.0445
        0.0377       0.0547      -0.1232
        0.0013      -0.0440      -0.0020
  --------------------------------------
  
  APT for atom H44     
  --------------------------------------
        0.0540      -0.0347      -0.0218
       -0.0425      -0.0008      -0.0517
       -0.0389      -0.0492       0.0068
  --------------------------------------
  
  APT for atom H45     
  --------------------------------------
       -0.0009       0.0681      -0.0855
        0.0170      -0.0146       0.0638
       -0.0321       0.0580       0.0215
  --------------------------------------
  
  APT for atom H46     
  --------------------------------------
       -0.0213       0.0213       0.0995
        0.0334       0.0280      -0.0180
        0.0872      -0.0107       0.0105
  --------------------------------------
  
  APT for atom C47     
  --------------------------------------
        0.0132      -0.0250       0.0557
       -0.0185       0.0228      -0.0141
       -0.0689      -0.0663       0.0455
  --------------------------------------
  
  APT for atom H48     
  --------------------------------------
        0.0417       0.0492       0.0745
        0.0619      -0.0257      -0.0545
        0.0895      -0.0219       0.0066
  --------------------------------------
  
  APT for atom H49     
  --------------------------------------
       -0.0029       0.0717      -0.0587
        0.0560       0.0443       0.0752
       -0.0020       0.0683       0.0047
  --------------------------------------
  
  APT for atom H50     
  --------------------------------------
       -0.0079      -0.0867      -0.0445
       -0.1027       0.0023      -0.0467
       -0.0768      -0.0678      -0.0091
  --------------------------------------
  
  APT for atom H51     
  --------------------------------------
       -0.0076       0.0255      -0.0195
       -0.0093       0.0185      -0.0016
       -0.0490       0.0431      -0.0325
  --------------------------------------
  
  APT for atom H52     
  --------------------------------------
       -0.0216       0.0259      -0.0302
        0.0397      -0.0389       0.0822
       -0.0144       0.0333      -0.0291
  --------------------------------------
  
  APT for atom H53     
  --------------------------------------
       -0.0164       0.0047      -0.0423
       -0.0009      -0.0676      -0.0063
       -0.0499       0.0422      -0.0670
  --------------------------------------
  
  APT for atom H54     
  --------------------------------------
        0.0042      -0.0285      -0.0474
        0.0464      -0.1048       0.0366
       -0.0166       0.0046      -0.0623
  --------------------------------------
  
  APT for atom H55     
  --------------------------------------
       -0.0047      -0.0179       0.0248
       -0.0581      -0.0229       0.0005
       -0.0056       0.0037       0.0779
  --------------------------------------
  
  APT for atom H56     
  --------------------------------------
        0.0411       0.0242      -0.0307
        0.0326       0.0474       0.0205
       -0.0433      -0.0310      -0.0916
  --------------------------------------
  
  APT for atom H57     
  --------------------------------------
       -0.0173      -0.0443      -0.0020
       -0.0707       0.0470       0.0111
       -0.0248      -0.0301       0.0228
  --------------------------------------
  
  APT for atom H58     
  --------------------------------------
        0.0514       0.0706       0.0169
        0.0478      -0.0722       0.0019
       -0.0139       0.0228       0.0212
  --------------------------------------
  
  Peak memory usage:   1684 Mb
  
  end of program cphfa
   
 Time(cphfa)  user:     9084.7  user+sys:     9084.7  wallclock:     4062.7
  
  start of program freq
  
   
  Number of frequencies: 168
  harmonic frequencies in cm**-1, reduced masses in amu,
  force constants in mDyne/A, and
  normal modes in cartesian coordinates:         168
  IR intensities in km/mol
  
  vibration #            1        2        3        4        5        6
                  -------- -------- -------- -------- -------- --------
  frequencies      -601.25    23.05    35.12    41.18    56.16    73.52
  intensities        13.46     0.02     0.36     0.05     1.00     1.48
  reduc. mass         0.79     0.57     1.10     1.18     1.22     1.07
  force const         0.17     0.00     0.00     0.00     0.00     0.00
    Rh1      X    -0.00402 -0.01471 -0.00962  0.00126 -0.00778  0.00385
    Rh1      Y    -0.01808 -0.00153  0.00239 -0.00418  0.00699  0.00006
    Rh1      Z    -0.00236  0.00227 -0.00241  0.00072  0.00984  0.00553
    O2       X     0.00175 -0.01725  0.00910  0.00664  0.03266  0.02189
    O2       Y    -0.00211 -0.00564  0.00402 -0.01455  0.05058  0.03238
    O2       Z     0.00211  0.00203 -0.00056  0.00052  0.01026  0.00703
    C3       X    -0.00330 -0.01788  0.01510  0.00805  0.04355  0.02499
    C3       Y     0.00007 -0.01457  0.00669 -0.02320  0.05079  0.03901
    C3       Z     0.00089  0.00342 -0.01325 -0.00279 -0.01230  0.00119
    N4       X     0.00443 -0.01779  0.00733  0.00582  0.02812  0.01995
    N4       Y     0.00848 -0.02103  0.00545 -0.02565  0.02229  0.01561
    N4       Z     0.00560  0.00470 -0.02573 -0.00640 -0.03187 -0.00187
    C5       X     0.03448 -0.01789 -0.00999  0.00033 -0.00312  0.01183
    C5       Y    -0.01738 -0.01870 -0.00305 -0.01828 -0.01016 -0.01555
    C5       Z     0.01341  0.00422 -0.02349 -0.00758 -0.02422  0.00515
    C6       X     0.05602 -0.02702 -0.01928 -0.00576 -0.03279 -0.01128
    C6       Y     0.04914 -0.01300 -0.00388 -0.01357 -0.00839 -0.01187
    C6       Z     0.00868  0.00157 -0.00856 -0.01201  0.01416  0.03058
    C7       X     0.00725 -0.00928 -0.01982 -0.00432  0.00084  0.03388
    C7       Y     0.01406 -0.02804 -0.01121 -0.01477 -0.05556 -0.06193
    C7       Z    -0.00029  0.00748 -0.04242 -0.01041 -0.05537 -0.00438
    N8       X     0.00469 -0.00178 -0.03099 -0.00987  0.00379  0.05686
    N8       Y     0.00442 -0.03711 -0.01903 -0.01153 -0.09742 -0.10763
    N8       Z    -0.00434  0.01027 -0.06301 -0.01520 -0.08382 -0.00976
    H9       X    -0.19519 -0.03420 -0.01742 -0.00636 -0.03746 -0.02881
    H9       Y     0.09197 -0.01244  0.00419 -0.01646  0.01471  0.00915
    H9       Z    -0.03680 -0.00009 -0.00038 -0.01491  0.03451  0.04510
    H10      X    -0.10083 -0.02986 -0.02896 -0.01083 -0.05447 -0.01676
    H10      Y     0.07013 -0.01360 -0.01471 -0.00999 -0.03704 -0.03729
    H10      Z    -0.04024  0.00097 -0.00656 -0.01503  0.02039  0.04007
    H11      X     0.00145 -0.01833  0.01261  0.00716  0.03768  0.02287
    H11      Y     0.01098 -0.02809  0.00415 -0.03197  0.02216  0.02378
    H11      Z     0.00988  0.00590 -0.03543 -0.00873 -0.04951 -0.00753
    H12      X    -0.00048 -0.01854  0.02728  0.01164  0.06592  0.03123
    H12      Y     0.00361 -0.01749  0.01029 -0.02947  0.07508  0.06504
    H12      Z     0.00066  0.00378 -0.01490 -0.00256 -0.01707 -0.00201
    P13      X     0.00205 -0.00974  0.00412 -0.00053 -0.00226  0.00971
    P13      Y    -0.00132  0.00377  0.01361  0.00774 -0.00510  0.00708
    P13      Z    -0.00079  0.00247 -0.00179  0.00125  0.00780  0.00395
    P14      X     0.00971 -0.00342 -0.00524  0.01273 -0.00648 -0.01965
    P14      Y     0.01211  0.00170  0.00163 -0.00096  0.00596 -0.00522
    P14      Z     0.00172  0.00092  0.00496  0.01064  0.00008 -0.00096
    C15      X    -0.00002 -0.05951 -0.00639 -0.00146 -0.00336  0.02086
    C15      Y    -0.00045 -0.00708  0.01179  0.00940 -0.00712  0.01072
    C15      Z     0.00114  0.00549  0.00103  0.01061 -0.00356  0.01129
    C16      X     0.00088 -0.04315 -0.00247  0.00210  0.00929 -0.02213
    C16      Y     0.00126 -0.01426  0.01065  0.00249  0.01309 -0.02041
    C16      Z     0.00114  0.02128  0.00474  0.01684 -0.00775 -0.00016
    H17      X    -0.00577 -0.01575 -0.01123  0.00103 -0.01092  0.00433
    H17      Y     0.16257  0.00693  0.00895  0.00209  0.02135 -0.00548
    H17      Z     0.02965 -0.00122 -0.00139  0.00204  0.02217  0.01165
    H18      X    -0.84987 -0.03014 -0.02212 -0.00476 -0.04814 -0.01605
    H18      Y     0.16060  0.00056  0.00313 -0.00333  0.01109  0.00319
    H18      Z    -0.11275  0.00189 -0.00466 -0.00672  0.02694  0.01183
    C19      X     0.00025  0.03130  0.03209  0.00088  0.00899 -0.00480
    C19      Y     0.00030 -0.03241 -0.00320  0.01068 -0.02101  0.04474
    C19      Z     0.00121 -0.00984 -0.01265 -0.00263  0.00931 -0.02118
    C20      X     0.00105  0.01319  0.02815  0.00075  0.00300  0.01071
    C20      Y    -0.00020  0.05138  0.01769  0.01049  0.01352 -0.01016
    C20      Z    -0.00014  0.01191  0.02423  0.00105  0.00627  0.01602
    C21      X     0.00085  0.03395 -0.00581  0.01635 -0.03065 -0.00492
    C21      Y     0.00268  0.02308 -0.00719  0.01871  0.00587 -0.02306
    C21      Z    -0.00060  0.02434  0.00801  0.00347 -0.01907  0.01524
    C22      X    -0.00360  0.00603 -0.00117  0.01446  0.00613 -0.04677
    C22      Y     0.01072  0.00052 -0.00360  0.00276 -0.00890  0.01606
    C22      Z    -0.00173 -0.04767  0.01922 -0.00990  0.03514 -0.03037
    C23      X    -0.00056  0.04039  0.00850 -0.05370 -0.01799 -0.03012
    C23      Y     0.00380  0.02037 -0.02269  0.09049 -0.00969  0.00655
    C23      Z     0.00184 -0.04517  0.03225 -0.07714  0.02739 -0.01959
    H24      X    -0.00155  0.04296  0.01678 -0.09272 -0.00903 -0.04797
    H24      Y     0.00402  0.01976 -0.02478  0.10030 -0.01199  0.01103
    H24      Z     0.01019 -0.06678  0.04980 -0.15322  0.03788 -0.02328
    H25      X    -0.00076  0.06057  0.00722 -0.06060 -0.04078 -0.00620
    H25      Y    -0.00104  0.03116 -0.04145  0.17678 -0.01784  0.01405
    H25      Z    -0.00025 -0.05169  0.02296 -0.02676  0.03688 -0.03015
    C26      X    -0.00059  0.04339  0.00711 -0.04900 -0.02272 -0.02496
    C26      Y     0.00201  0.02592 -0.01328  0.04567  0.00239 -0.01830
    C26      Z     0.00182 -0.00431  0.03163 -0.09410 -0.00592  0.00917
    H27      X    -0.00140  0.06860  0.01116 -0.07875 -0.04090 -0.01092
    H27      Y     0.00320  0.04096 -0.02624  0.09933  0.00088 -0.02377
    H27      Z     0.00136  0.00035  0.03716 -0.12176 -0.01218  0.01606
    H28      X     0.00010  0.02623  0.01092 -0.05951 -0.00201 -0.04852
    H28      Y     0.00165  0.01643  0.00308 -0.02624  0.01052 -0.02707
    H28      Z     0.00085  0.00054  0.04214 -0.14483 -0.01448  0.01928
    C29      X    -0.00027  0.04543  0.07206  0.00581  0.00353  0.00768
    C29      Y     0.00011  0.04072 -0.08129 -0.00616  0.04103  0.01111
    C29      Z    -0.00007  0.00155  0.06641  0.00931 -0.01232  0.00278
    H30      X    -0.00022  0.06786  0.09592  0.00853  0.00625  0.00008
    H30      Y    -0.00002  0.06654 -0.10424 -0.01108  0.06071 -0.00114
    H30      Z     0.00020  0.00201  0.13438  0.02017 -0.03442  0.00735
    H31      X     0.00004  0.02949  0.08142  0.00730 -0.00623  0.03153
    H31      Y     0.00025  0.03532 -0.14385 -0.01660  0.05954  0.02400
    H31      Z    -0.00008  0.00410  0.00516 -0.00087  0.00907  0.00334
    C32      X    -0.00008  0.06610  0.06583  0.00415  0.01504 -0.01671
    C32      Y     0.00012  0.00105 -0.05744 -0.00045  0.01483  0.03117
    C32      Z     0.00042 -0.01180  0.08851  0.01435 -0.02736 -0.01744
    H33      X    -0.00043  0.08681  0.05309  0.00121  0.02870 -0.04200
    H33      Y     0.00030  0.00742 -0.00726  0.00763  0.00026  0.01783
    H33      Z     0.00034 -0.01566  0.15900  0.02624 -0.05356 -0.01972
    H34      X    -0.00090  0.08539  0.09611  0.00794  0.01397 -0.01729
    H34      Y     0.00126 -0.01124 -0.12069 -0.01047  0.03107  0.05084
    H34      Z     0.00036 -0.01892  0.10351  0.01747 -0.03623 -0.02878
    C35      X     0.00083  0.02850 -0.00877  0.03140 -0.03084 -0.00075
    C35      Y     0.00116  0.02266  0.01009 -0.06771  0.02305 -0.05329
    C35      Z    -0.00019  0.06689 -0.00243  0.05528 -0.05174  0.04069
    H36      X    -0.00059  0.02241 -0.01885  0.08378 -0.03924  0.01862
    H36      Y     0.00079  0.02007  0.01401 -0.08438  0.02658 -0.05784
    H36      Z     0.00050  0.08680 -0.01824  0.11631 -0.06668  0.05371
    H37      X    -0.00023  0.00901 -0.00050 -0.01503 -0.00969 -0.02364
    H37      Y     0.00010  0.01034  0.02658 -0.13659  0.03784 -0.07143
    H37      Z    -0.00033  0.06937  0.00404  0.03477 -0.05340  0.04101
    H38      X    -0.00003  0.05142 -0.00929  0.03770 -0.04519  0.00738
    H38      Y    -0.00004  0.03788  0.00255 -0.04675  0.01822 -0.05528
    H38      Z    -0.00030  0.07695 -0.00067  0.05338 -0.05934  0.04630
    C39      X    -0.00292  0.00396 -0.00196  0.01480  0.00325 -0.04290
    C39      Y     0.00204 -0.00573 -0.00574 -0.01814 -0.03580  0.04482
    C39      Z     0.00006 -0.08056  0.00456  0.10367  0.07676 -0.07682
    H40      X    -0.00720  0.02096  0.00256 -0.04757 -0.03332 -0.00352
    H40      Y    -0.00105  0.00254 -0.01704  0.01818 -0.04776  0.05306
    H40      Z    -0.00021 -0.08030 -0.00672  0.15908  0.08118 -0.08503
    H41      X     0.00337  0.01097  0.00079  0.01695  0.01688 -0.05486
    H41      Y    -0.00170 -0.00636 -0.00850 -0.01820 -0.04699  0.05498
    H41      Z     0.00171 -0.10539  0.01286  0.09550  0.10010 -0.10067
    H42      X    -0.00507 -0.02071 -0.00979  0.07315  0.02219 -0.06747
    H42      Y     0.00247 -0.01841  0.00611 -0.06841 -0.03435  0.04600
    H42      Z    -0.00119 -0.08314 -0.00371  0.14738  0.08242 -0.08656
    C43      X    -0.00004 -0.01262 -0.02837 -0.01183  0.00701  0.03599
    C43      Y     0.00018  0.07812  0.03715  0.01556  0.01934 -0.02179
    C43      Z    -0.00079  0.02773 -0.04106 -0.01174  0.02873  0.03766
    H44      X    -0.00135 -0.03707 -0.04325 -0.01196 -0.00315  0.03911
    H44      Y     0.00255  0.08657  0.09705  0.02496  0.01264 -0.04154
    H44      Z    -0.00169  0.03591 -0.07028 -0.01753  0.03798  0.04810
    H45      X    -0.00015 -0.02406 -0.06685 -0.02153  0.01377  0.05386
    H45      Y    -0.00024  0.06633 -0.01666  0.00682  0.02301 -0.00352
    H45      Z    -0.00101  0.02391 -0.07032 -0.01354  0.02729  0.04334
    H46      X     0.00032  0.00650 -0.01548 -0.01139  0.01514  0.03321
    H46      Y     0.00046  0.10284  0.04393  0.01857  0.02525 -0.02894
    H46      Z    -0.00050  0.03667 -0.02836 -0.01320  0.03569  0.03884
    C47      X    -0.00124  0.05119 -0.03454 -0.01434  0.04946 -0.03968
    C47      Y     0.00025 -0.07127  0.06559  0.02587 -0.06930  0.07000
    C47      Z    -0.00120 -0.01738 -0.03736 -0.00871  0.01919 -0.04309
    H48      X     0.00002  0.02839 -0.04648 -0.01374  0.04190 -0.02768
    H48      Y    -0.00034 -0.09498  0.10876  0.03540 -0.09974  0.08623
    H48      Z     0.00203 -0.01303 -0.10677 -0.02028  0.04962 -0.05002
    H49      X    -0.00281  0.07002 -0.09213 -0.02774  0.08579 -0.07161
    H49      Y    -0.00425 -0.06218  0.08917  0.02690 -0.07148  0.05188
    H49      Z    -0.00493 -0.02127  0.02061  0.00080 -0.00603 -0.03871
    H50      X    -0.00313  0.07166 -0.01610 -0.01339  0.05321 -0.04801
    H50      Y     0.00488 -0.08708  0.05286  0.02740 -0.07554  0.09324
    H50      Z    -0.00343 -0.02326 -0.04406 -0.01115  0.02134 -0.05689
    H51      X    -0.00050  0.05432 -0.01402  0.06180 -0.05334  0.02032
    H51      Y     0.00236  0.03440 -0.02372  0.08966 -0.00229 -0.01548
    H51      Z    -0.00016  0.02253  0.00064  0.03071 -0.01420  0.00865
    H52      X     0.00031  0.02675  0.06472  0.00989 -0.00054 -0.00941
    H52      Y    -0.00101  0.06444  0.08623  0.02265 -0.00061 -0.02625
    H52      Z    -0.00151  0.01368  0.06578  0.00579 -0.00628  0.01736
    H53      X     0.00124  0.01178  0.08862  0.01398 -0.02605  0.02512
    H53      Y     0.00212 -0.04549 -0.02898  0.00909 -0.02166  0.06510
    H53      Z     0.00236 -0.00786 -0.07971 -0.01397  0.03484 -0.02375
    H54      X     0.00621 -0.01227 -0.00615  0.07775  0.04075 -0.08361
    H54      Y     0.02145 -0.01011  0.00979 -0.04738  0.00023  0.01007
    H54      Z     0.00344 -0.04995  0.03110 -0.06869  0.03097 -0.02297
    H55      X     0.00023 -0.07541 -0.00951 -0.00201 -0.00170  0.02199
    H55      Y    -0.00070  0.01189  0.01508  0.01049 -0.01428  0.02133
    H55      Z     0.00170 -0.02265 -0.00584  0.01042 -0.01640  0.05174
    H56      X     0.00101 -0.08438 -0.01236 -0.00428 -0.00939  0.05158
    H56      Y    -0.00241 -0.02451  0.00868  0.01383 -0.01484  0.02157
    H56      Z     0.00019  0.01964  0.00442  0.01240 -0.00030 -0.00624
    H57      X     0.00044 -0.03424 -0.00409  0.00433  0.00052 -0.00866
    H57      Y     0.00169 -0.02722  0.01396 -0.00136  0.03167 -0.05235
    H57      Z     0.00169  0.04548  0.00370  0.01986 -0.00648 -0.01712
    H58      X    -0.00115 -0.06153  0.00127 -0.00224  0.02812 -0.05136
    H58      Y    -0.00044 -0.01709  0.01196  0.00276  0.01488 -0.02403
    H58      Z    -0.00522  0.02118  0.00829  0.02180 -0.01377  0.00510
  
  vibration #            7        8        9       10       11       12
                  -------- -------- -------- -------- -------- --------
  frequencies        79.57    83.17    86.92   103.62   123.76   133.43
  intensities         2.46     0.85     4.93     1.65     1.14     3.88
  reduc. mass         1.21     1.09     3.04     1.40     0.91     1.63
  force const         0.00     0.00     0.01     0.01     0.01     0.02
    Rh1      X     0.00806 -0.00637 -0.00717  0.01715 -0.01022  0.00480
    Rh1      Y     0.02365  0.00787 -0.00913 -0.01233  0.01548 -0.01411
    Rh1      Z    -0.00626 -0.01468  0.02023  0.00806 -0.00787 -0.00843
    O2       X     0.00649 -0.04209  0.00629 -0.02991 -0.02867 -0.03158
    O2       Y    -0.00117  0.04460 -0.01315 -0.01143 -0.05268 -0.11897
    O2       Z    -0.00818 -0.00912  0.02140  0.00638 -0.01827 -0.01295
    C3       X     0.00276 -0.04657  0.01356 -0.03707 -0.02561 -0.03281
    C3       Y    -0.06548  0.06874 -0.02813  0.01038 -0.03869 -0.03358
    C3       Z    -0.00068  0.00048  0.00567  0.02289 -0.02269 -0.00982
    N4       X     0.00287 -0.04113  0.00310 -0.02502 -0.02464 -0.02176
    N4       Y    -0.09959  0.05926 -0.03167  0.02087  0.02426  0.07791
    N4       Z     0.00516  0.01100 -0.01154  0.03960 -0.03116 -0.01211
    C5       X     0.00186 -0.03156 -0.02539 -0.00536 -0.02309 -0.00390
    C5       Y    -0.05619  0.01862 -0.02096 -0.00805  0.04030  0.04676
    C5       Z    -0.00318  0.01848 -0.01277  0.04500 -0.03580 -0.00671
    C6       X    -0.03077 -0.02387 -0.02647  0.00194 -0.01767  0.02734
    C6       Y    -0.02559  0.00496 -0.02364 -0.01511  0.03479  0.01917
    C6       Z    -0.03725  0.04386 -0.00717  0.05479 -0.03865  0.01402
    C7       X     0.01212 -0.03215 -0.07822 -0.01424  0.00352  0.01753
    C7       Y    -0.04794  0.00074  0.01728 -0.02502  0.01281  0.00360
    C7       Z     0.01656  0.00337 -0.04659  0.02102 -0.02553 -0.01630
    N8       X     0.02183 -0.03665 -0.13548 -0.03640  0.02641  0.03697
    N8       Y    -0.04049 -0.01599  0.05782 -0.05761 -0.02788 -0.06952
    N8       Z     0.03484 -0.01514 -0.08970 -0.03273 -0.02720 -0.04738
    H9       X    -0.04759 -0.03640 -0.00676 -0.02066 -0.00996  0.03262
    H9       Y    -0.04208  0.02695 -0.02728 -0.00125  0.03008  0.03217
    H9       Z    -0.05805  0.06086 -0.00453  0.06107 -0.04080  0.02853
    H10      X    -0.05058 -0.00820 -0.04407  0.01978 -0.01476  0.06241
    H10      Y    -0.00410 -0.02166 -0.02040 -0.02997  0.03799  0.00103
    H10      Z    -0.05221  0.05986 -0.01361  0.06617 -0.03894  0.03183
    H11      X     0.00017 -0.04444  0.01003 -0.03268 -0.02481 -0.02405
    H11      Y    -0.14257  0.07266 -0.04910  0.02916  0.01916  0.12379
    H11      Z     0.01123  0.01679 -0.02387  0.05362 -0.03047 -0.00910
    H12      X    -0.00029 -0.05522  0.02930 -0.05476 -0.02559 -0.04315
    H12      Y    -0.09811  0.09929 -0.04064  0.02230 -0.07596 -0.04417
    H12      Z     0.00280 -0.00150  0.00521  0.02359 -0.01925 -0.00777
    P13      X    -0.00252 -0.00366  0.02535  0.04081  0.03367 -0.01476
    P13      Y     0.00857 -0.00696 -0.00832  0.01071  0.02461 -0.01046
    P13      Z    -0.00182 -0.01373  0.01287 -0.00221 -0.00077 -0.00164
    P14      X     0.01703  0.03620  0.01375 -0.00190 -0.03297  0.01897
    P14      Y     0.03211  0.00734  0.00354 -0.01299 -0.00150  0.00949
    P14      Z    -0.01313 -0.01344  0.00614  0.00771 -0.00090  0.02892
    C15      X    -0.01280 -0.00390  0.05204  0.03374  0.03993 -0.01262
    C15      Y     0.00164 -0.00510 -0.00332  0.01100  0.02487 -0.00602
    C15      Z    -0.01891 -0.01658  0.01227  0.01490 -0.00240  0.01397
    C16      X     0.01068  0.02752  0.02633  0.00106 -0.00613  0.01490
    C16      Y     0.02147  0.02140 -0.00969 -0.02052  0.00222  0.00426
    C16      Z    -0.01383 -0.00764 -0.00251  0.00732 -0.01660  0.02840
    H17      X     0.00650 -0.00731 -0.01043  0.01846 -0.01261  0.00438
    H17      Y     0.06014  0.02682  0.01424 -0.00631  0.02732 -0.02905
    H17      Z    -0.00155 -0.03551  0.01166 -0.01527 -0.01272 -0.01510
    H18      X    -0.04447 -0.01363 -0.02234  0.00565 -0.03564  0.07696
    H18      Y     0.03052  0.00421 -0.01012 -0.00928  0.02134 -0.01946
    H18      Z    -0.00476  0.00654  0.02902  0.00085 -0.03204 -0.03588
    C19      X     0.00130 -0.00040  0.01341  0.01481  0.01845 -0.00726
    C19      Y    -0.02241 -0.01858  0.01430  0.02119  0.01050 -0.01587
    C19      Z     0.03237 -0.00618 -0.00073  0.02464  0.04545 -0.01070
    C20      X    -0.00733 -0.00314  0.02448  0.00747  0.02488 -0.00911
    C20      Y     0.00229 -0.01047 -0.01805  0.03416 -0.01632 -0.01190
    C20      Z    -0.00493 -0.01279  0.01322 -0.06277  0.00533  0.00813
    C21      X    -0.00322  0.05301  0.00693 -0.01284 -0.00597 -0.00213
    C21      Y    -0.00971 -0.04701  0.00547  0.00029 -0.00053  0.02988
    C21      Z    -0.01427  0.01571 -0.00002 -0.00574  0.02003  0.01240
    C22      X    -0.02214  0.02350 -0.00871 -0.00899 -0.01429 -0.00085
    C22      Y     0.05882  0.01457  0.02532 -0.00723 -0.02035  0.03697
    C22      Z     0.00928  0.02199 -0.01201 -0.01100 -0.00691  0.02246
    C23      X    -0.03291  0.00944 -0.00353 -0.00546  0.00172 -0.00909
    C23      Y     0.01867 -0.01095  0.01804 -0.00257 -0.00895  0.03996
    C23      Z     0.02601  0.03131 -0.00749 -0.01279 -0.00653  0.01716
    H24      X    -0.05122 -0.01248 -0.01127 -0.00367  0.00714 -0.01607
    H24      Y     0.02326 -0.00551  0.02007 -0.00300 -0.01041  0.04190
    H24      Z     0.05101  0.04269 -0.00770 -0.01530 -0.01487  0.00993
    H25      X    -0.02496  0.02171  0.00519 -0.00650  0.00705 -0.00842
    H25      Y     0.00734 -0.00967  0.02049 -0.00136 -0.00687  0.04994
    H25      Z     0.01502  0.02446 -0.01143 -0.01140 -0.00873  0.02223
    C26      X    -0.02953  0.01426 -0.00129 -0.00633  0.00134 -0.00671
    C26      Y    -0.01055 -0.04479  0.00723  0.00110 -0.00064  0.03168
    C26      Z     0.01973  0.03612 -0.00088 -0.01385  0.01114  0.00972
    H27      X    -0.03567  0.01478  0.00025 -0.00801  0.01497 -0.01541
    H27      Y    -0.03867 -0.06854  0.00457  0.00859  0.00332  0.03279
    H27      Z     0.02623  0.04379  0.00047 -0.01685  0.01498  0.00615
    H28      X    -0.03860 -0.00441 -0.00790 -0.00257 -0.00563 -0.00514
    H28      Y    -0.00305 -0.04508  0.00368 -0.00192 -0.00062  0.02615
    H28      Z     0.03243  0.04952  0.00109 -0.01902  0.01626  0.00419
    C29      X    -0.01132 -0.00279  0.01279 -0.02969  0.00053  0.00326
    C29      Y    -0.01702 -0.01039  0.01762  0.01746 -0.00928 -0.01185
    C29      Z     0.01091 -0.01270 -0.00476 -0.03296  0.01465  0.00206
    H30      X    -0.01018 -0.00195  0.00373 -0.04146 -0.01258  0.00813
    H30      Y    -0.01502 -0.00826  0.01696  0.01879 -0.01827 -0.01132
    H30      Z     0.00997 -0.01430 -0.01804 -0.05289  0.00610  0.00888
    H31      X    -0.02763 -0.00531  0.02623 -0.05923 -0.00158  0.00904
    H31      Y    -0.03001 -0.01040  0.04123  0.00948 -0.00649 -0.01256
    H31      Z     0.00671 -0.01156  0.01045 -0.02632  0.01809 -0.00132
    C32      X     0.00417  0.00064 -0.00061 -0.00774  0.00138 -0.00008
    C32      Y    -0.02268 -0.01363  0.02334  0.01598  0.00381 -0.01300
    C32      Z     0.03508 -0.01133 -0.02653  0.00863  0.03392 -0.00707
    H33      X     0.02143  0.00460 -0.01395  0.01475  0.00580 -0.00407
    H33      Y    -0.00906 -0.01389  0.00051  0.02349  0.00474 -0.01406
    H33      Z     0.04237 -0.01399 -0.04754  0.00531  0.03252 -0.00616
    H34      X     0.00116 -0.00059 -0.00784 -0.02855 -0.01264  0.00488
    H34      Y    -0.04149 -0.01359  0.05337  0.00616  0.00321 -0.01174
    H34      Z     0.04863 -0.01042 -0.03906  0.03008  0.04498 -0.01158
    C35      X     0.00409  0.06320  0.00943 -0.01373 -0.00941 -0.00306
    C35      Y    -0.02935 -0.10482 -0.00075  0.01329 -0.01091  0.04750
    C35      Z    -0.03329  0.05571 -0.00730 -0.02828  0.07047 -0.01524
    H36      X     0.02276  0.10510  0.01458 -0.02176 -0.00825 -0.01547
    H36      Y    -0.02695 -0.10795 -0.00215  0.01338 -0.01616  0.04952
    H36      Z    -0.06125  0.04448 -0.00240 -0.02315  0.10125 -0.01789
    H37      X    -0.00020  0.01321  0.01336  0.00642 -0.03529  0.02101
    H37      Y    -0.01554 -0.11285 -0.00692  0.01220 -0.03483  0.05474
    H37      Z    -0.02171  0.07760 -0.01362 -0.03996  0.06842 -0.02344
    H38      X    -0.00596  0.08040  0.00253 -0.02686  0.01544 -0.01667
    H38      Y    -0.06222 -0.14258  0.00243  0.02542  0.00940  0.05635
    H38      Z    -0.03046  0.07680 -0.01245 -0.03979  0.08037 -0.02609
    C39      X    -0.01520  0.02765 -0.00242 -0.00824 -0.02149  0.00903
    C39      Y     0.09925  0.03403  0.06924 -0.00035 -0.05996  0.09549
    C39      Z    -0.00934  0.02954 -0.04245 -0.02376 -0.01069  0.01491
    H40      X     0.01050  0.02988  0.03558  0.00371 -0.03912  0.04402
    H40      Y     0.09067  0.02467  0.08089  0.01096 -0.06791  0.12078
    H40      Z    -0.02631  0.02081 -0.04730 -0.01879 -0.01069  0.02305
    H41      X    -0.03822  0.01352 -0.02882 -0.01075  0.00652 -0.03087
    H41      Y     0.11084  0.03930  0.08656  0.00364 -0.07579  0.12115
    H41      Z     0.00303  0.05086 -0.05646 -0.04223 -0.01428 -0.00248
    H42      X    -0.01368  0.04138 -0.00846 -0.01705 -0.03744  0.02052
    H42      Y     0.12546  0.05465  0.07634 -0.01165 -0.07079  0.09683
    H42      Z    -0.02173  0.02461 -0.04772 -0.02168 -0.01109  0.01779
    C43      X    -0.01368  0.00141  0.04631 -0.05044  0.06402 -0.00065
    C43      Y     0.00023 -0.01499 -0.02893  0.05810 -0.05215 -0.01440
    C43      Z    -0.02211 -0.01424  0.02872 -0.12335 -0.00491  0.02120
    H44      X    -0.01379 -0.00030  0.05608 -0.00108  0.09594 -0.01691
    H44      Y     0.01152 -0.01244 -0.04639  0.06295 -0.07168 -0.01083
    H44      Z    -0.02861 -0.01496  0.03312 -0.15289 -0.01070  0.02777
    H45      X    -0.01795  0.00565  0.05941 -0.11033  0.08478  0.01058
    H45      Y    -0.00852 -0.01673 -0.01443  0.04961 -0.02973 -0.01696
    H45      Z    -0.02850 -0.01995  0.03419 -0.08174  0.00289  0.00848
    H46      X    -0.01369  0.00253  0.03854 -0.08604  0.03904  0.01173
    H46      Y    -0.00339 -0.02005 -0.03885  0.07715 -0.08534 -0.01571
    H46      Z    -0.01958 -0.00932  0.02481 -0.18430 -0.01604  0.03883
    C47      X     0.02802  0.01310  0.01780  0.02855  0.06231 -0.01052
    C47      Y    -0.02849 -0.02954  0.00146  0.02860  0.00448 -0.02426
    C47      Z     0.06009  0.00130 -0.00592  0.04653  0.09441 -0.02105
    H48      X     0.02632  0.00861  0.02603  0.04765  0.07429 -0.02202
    H48      Y    -0.03261 -0.03674 -0.00725  0.03245 -0.00061 -0.02984
    H48      Z     0.06332  0.00532  0.01456  0.06348  0.11436 -0.02712
    H49      X     0.05183  0.02569  0.02118  0.03884  0.10150 -0.01225
    H49      Y    -0.01205 -0.02390 -0.01587  0.02200  0.01877 -0.02106
    H49      Z     0.05946 -0.00172 -0.02352  0.03375  0.08147 -0.01693
    H50      X     0.02700  0.01625  0.00995  0.00824  0.04641  0.00110
    H50      Y    -0.04710 -0.03752  0.01700  0.03695 -0.01121 -0.02940
    H50      Z     0.07914  0.00572 -0.01285  0.05943  0.12603 -0.02818
    H51      X    -0.00152  0.09773  0.00497 -0.03126  0.02342 -0.02483
    H51      Y    -0.02115 -0.04807  0.00855  0.00302  0.00278  0.03259
    H51      Z    -0.02273 -0.00576  0.00309  0.00423  0.00945  0.02492
    H52      X    -0.00005 -0.00714  0.01026  0.05886  0.00188 -0.01848
    H52      Y     0.01290 -0.01113 -0.04036  0.05573 -0.03073 -0.01370
    H52      Z    -0.00001 -0.00912  0.00153 -0.08811  0.01130  0.01541
    H53      X    -0.02180 -0.01171  0.01050  0.00433 -0.01615 -0.00469
    H53      Y    -0.04278 -0.02354  0.03096  0.02300 -0.00725 -0.01586
    H53      Z     0.02995 -0.00257  0.01755  0.03398  0.05413 -0.01272
    H54      X    -0.04700  0.02277 -0.04242 -0.01937 -0.00119 -0.02679
    H54      Y     0.06855  0.02533  0.01650 -0.01367 -0.01589  0.02159
    H54      Z     0.02488  0.03069 -0.00793 -0.01266 -0.00768  0.01899
    H55      X    -0.01547 -0.00240  0.06036  0.03121  0.04298 -0.01120
    H55      Y    -0.00221 -0.01610 -0.00880  0.02467  0.03258 -0.01458
    H55      Z    -0.04666 -0.04457  0.04178  0.04656  0.03706 -0.00669
    H56      X    -0.03216 -0.02549  0.07759  0.05701  0.07156 -0.03357
    H56      Y    -0.01268 -0.00915  0.00763  0.01890  0.03426  0.00131
    H56      Z    -0.00809 -0.00411 -0.00237  0.00139 -0.02067  0.02634
    H57      X     0.00652  0.01726  0.02996  0.01261 -0.00180  0.01211
    H57      Y     0.03361  0.04595 -0.02010 -0.04744 -0.01456  0.01346
    H57      Z     0.00101  0.00755 -0.01605 -0.00744 -0.04843  0.04264
    H58      X     0.01903  0.05069  0.01883 -0.02388 -0.01566  0.01984
    H58      Y     0.02077  0.02372 -0.01174 -0.02247  0.00173  0.00427
    H58      Z    -0.02379 -0.01397 -0.00665  0.01700 -0.01103  0.02397
  
  vibration #           13       14       15       16       17       18
                  -------- -------- -------- -------- -------- --------
  frequencies       141.37   156.66   167.72   193.01   204.09   210.42
  intensities         0.99     4.81     0.91     1.62     3.87     0.09
  reduc. mass         0.85     5.07     7.97     1.66     1.13     0.47
  force const         0.01     0.07     0.13     0.04     0.03     0.01
    Rh1      X     0.00230 -0.03106 -0.00419  0.02594  0.02527 -0.00308
    Rh1      Y     0.00037 -0.01678  0.03582  0.01394  0.00276  0.00149
    Rh1      Z    -0.00734  0.02654  0.03651  0.01188 -0.00633  0.00537
    O2       X     0.00308 -0.00594  0.01263 -0.04264 -0.04138  0.00312
    O2       Y     0.06487  0.01891 -0.05559  0.05236  0.06149  0.00974
    O2       Z    -0.01108  0.01232  0.03781 -0.01284 -0.03260  0.00826
    C3       X     0.00278  0.01434  0.01411 -0.04161 -0.05149  0.00369
    C3       Y     0.03036  0.02003 -0.07701 -0.00667 -0.00732 -0.00022
    C3       Z    -0.01034 -0.02774  0.03743 -0.01296 -0.01240  0.00712
    N4       X    -0.00017 -0.01210  0.01464 -0.04488 -0.03815  0.00292
    N4       Y    -0.03029  0.02113 -0.00063 -0.01515 -0.03435 -0.00573
    N4       Z    -0.00415 -0.06567  0.02534 -0.01558  0.01050  0.00650
    C5       X     0.00040 -0.04937 -0.00061 -0.04395 -0.00195  0.00160
    C5       Y    -0.02102  0.03812  0.04580  0.03922  0.02382  0.00454
    C5       Z    -0.00574 -0.07174  0.01570 -0.03097 -0.00438  0.00455
    C6       X    -0.00996 -0.04021 -0.00725 -0.02703  0.02871  0.00334
    C6       Y    -0.01205  0.01676  0.05097  0.03103  0.02310  0.00715
    C6       Z    -0.01676 -0.05450  0.00281 -0.05789 -0.05528 -0.00505
    C7       X     0.00173  0.00489  0.00974 -0.01392  0.00981  0.00124
    C7       Y    -0.01044  0.01309  0.02313  0.02160  0.02568  0.00456
    C7       Z     0.00487 -0.02808  0.00962 -0.00964  0.00850  0.00383
    N8       X     0.00435  0.08740  0.01184  0.00460 -0.00312 -0.00129
    N8       Y     0.01072  0.01483 -0.03337 -0.02433 -0.03182 -0.00698
    N8       Z     0.02442  0.08030 -0.03133 -0.02075 -0.05279 -0.00831
    H9       X    -0.01146  0.02324  0.01342  0.00304  0.04920  0.00533
    H9       Y    -0.01771  0.00643  0.03369  0.00361 -0.01747 -0.00043
    H9       Z    -0.02234 -0.04448 -0.00726 -0.07460 -0.08739 -0.01168
    H10      X    -0.01244 -0.05397 -0.02057 -0.03018  0.03656  0.00376
    H10      Y    -0.00609  0.02080  0.06985  0.06018  0.07199  0.01703
    H10      Z    -0.02022 -0.06051 -0.00902 -0.07137 -0.07417 -0.00922
    H11      X    -0.00137  0.00371  0.01618 -0.04906 -0.05449  0.00284
    H11      Y    -0.04512  0.02178 -0.03474 -0.07972 -0.09645 -0.01356
    H11      Z    -0.00153 -0.09457  0.02359 -0.00557  0.04280  0.00687
    H12      X     0.00476  0.05072  0.01160 -0.04099 -0.06983  0.00490
    H12      Y     0.04734  0.02021 -0.15739 -0.05258 -0.04634 -0.00462
    H12      Z    -0.01220 -0.03186  0.04526 -0.00890 -0.00680  0.00744
    P13      X     0.01977  0.01488  0.00418  0.01808 -0.00287 -0.00243
    P13      Y    -0.02782 -0.01483 -0.02344 -0.01079 -0.02793  0.01096
    P13      Z    -0.02009  0.01453  0.00058  0.00707  0.01982 -0.00808
    P14      X    -0.02219  0.01851 -0.00912  0.01949 -0.00601  0.00558
    P14      Y     0.01401 -0.01390  0.01911 -0.01203 -0.00182 -0.01098
    P14      Z     0.03698  0.01136 -0.02649  0.01992  0.00495  0.01588
    C15      X     0.02130  0.05852  0.00739 -0.07083  0.06931 -0.04652
    C15      Y    -0.01552 -0.00523 -0.02713 -0.03195 -0.01415  0.00206
    C15      Z     0.02136  0.02077 -0.02305  0.01885  0.01987 -0.00765
    C16      X    -0.00084  0.03984  0.00698 -0.05183  0.03592  0.00279
    C16      Y    -0.02207 -0.00439  0.00278 -0.07266  0.00309  0.01232
    C16      Z     0.01704  0.00366 -0.03964  0.05537 -0.01620  0.02088
    H17      X     0.00159 -0.03981 -0.00629  0.01534  0.02169 -0.00230
    H17      Y     0.00506 -0.00229  0.03094  0.04981  0.00454 -0.00389
    H17      Z    -0.01460  0.02955  0.03344  0.00898 -0.00226  0.00169
    H18      X    -0.00052 -0.02816 -0.02839 -0.06710  0.00232 -0.00257
    H18      Y     0.00301 -0.02098  0.03768  0.02542  0.00753  0.00181
    H18      Z    -0.00867  0.03626  0.05846  0.01029 -0.00772 -0.00486
    C19      X     0.01612  0.00735  0.00483  0.01633 -0.01773  0.01358
    C19      Y    -0.02365  0.00190 -0.01481 -0.00753 -0.00263 -0.01669
    C19      Z    -0.03262  0.00521 -0.03274  0.00677  0.01030 -0.00124
    C20      X     0.01313  0.00805  0.00147  0.00544 -0.00883 -0.00458
    C20      Y    -0.03550  0.00693 -0.01412 -0.00666 -0.00886  0.01094
    C20      Z    -0.04408 -0.01227 -0.02439 -0.01220  0.03074 -0.02664
    C21      X    -0.01543  0.00938  0.00488  0.01082 -0.01417 -0.02296
    C21      Y     0.04069 -0.00623 -0.00367 -0.02036  0.01333  0.02967
    C21      Z     0.04892 -0.00541 -0.01208  0.00963 -0.00321 -0.01693
    C22      X    -0.02223  0.01257  0.00064  0.00618 -0.00260  0.01681
    C22      Y     0.02052 -0.00326  0.00314 -0.00524 -0.00739 -0.01733
    C22      Z     0.03062  0.00127 -0.00595 -0.00961  0.01449  0.04131
    C23      X    -0.00809  0.00370  0.00437  0.00044  0.00165  0.01111
    C23      Y     0.03597 -0.00281 -0.01155  0.01104 -0.02565 -0.06941
    C23      Z     0.02761 -0.00304  0.00429 -0.01810  0.02324  0.06114
    H24      X    -0.00566  0.00294  0.00975 -0.02774  0.04008  0.11177
    H24      Y     0.03545 -0.00255 -0.01304  0.01809 -0.03540 -0.09488
    H24      Z     0.01187 -0.00372  0.01903 -0.04343  0.05828  0.15737
    H25      X    -0.00008 -0.00334  0.00348  0.02744 -0.03965 -0.10440
    H25      Y     0.04526 -0.00049 -0.02649  0.04279 -0.06865 -0.18357
    H25      Z     0.02764  0.00258 -0.00329 -0.01769  0.02563  0.07111
    C26      X    -0.00454  0.00158  0.00275  0.00735 -0.00954 -0.01837
    C26      Y     0.04021 -0.00316 -0.00732 -0.01980  0.01673  0.04037
    C26      Z     0.04361 -0.01770  0.00701  0.01593 -0.03179 -0.09783
    H27      X     0.00609 -0.01036  0.00920  0.02704 -0.04593 -0.12707
    H27      Y     0.03888  0.00710 -0.02044 -0.02840  0.04619  0.12821
    H27      Z     0.04812 -0.02545  0.01351  0.02581 -0.05449 -0.16571
    H28      X    -0.01230  0.01014  0.00050 -0.01879  0.03465  0.10665
    H28      Y     0.04153 -0.01165  0.00431 -0.02306  0.00935  0.01245
    H28      Z     0.05042 -0.03084  0.01805  0.03253 -0.07032 -0.21257
    C29      X     0.00794 -0.00166  0.00357 -0.01463  0.00729 -0.02823
    C29      Y    -0.03908  0.00403 -0.01178  0.01469 -0.01186  0.03098
    C29      Z    -0.03957 -0.00639 -0.02844 -0.01557  0.02303 -0.02513
    H30      X     0.00686 -0.00467  0.00673 -0.01887  0.00575 -0.02647
    H30      Y    -0.04486  0.00542 -0.01070  0.03478 -0.02697  0.07321
    H30      Z    -0.03373 -0.01278 -0.02500 -0.04892  0.04118 -0.07882
    H31      X     0.01435 -0.00729  0.01209 -0.04609  0.03389 -0.09500
    H31      Y    -0.04091  0.00491 -0.00760  0.02568 -0.01103  0.03823
    H31      Z    -0.04414 -0.00283 -0.02850  0.00912  0.01155  0.01243
    C32      X     0.00412  0.00151 -0.00232  0.01081 -0.02094  0.03333
    C32      Y    -0.02859  0.00386 -0.00971 -0.00963  0.00430 -0.01922
    C32      Z    -0.03950 -0.00283 -0.04486  0.00654 -0.00450  0.02601
    H33      X    -0.00291  0.00303 -0.01375  0.03686 -0.04788  0.09436
    H33      Y    -0.03575  0.00066 -0.02595  0.00068 -0.01831  0.02704
    H33      Z    -0.04448 -0.00761 -0.05883  0.00479 -0.01757  0.04957
    H34      X    -0.00487 -0.00308 -0.00677  0.00521 -0.01864  0.03643
    H34      Y    -0.01832  0.00756  0.01210 -0.02355  0.03387 -0.08132
    H34      Z    -0.03901 -0.00160 -0.05483  0.01904 -0.02392  0.06088
    C35      X    -0.02729  0.01674  0.00811  0.01364 -0.01300 -0.01267
    C35      Y     0.06995 -0.02438 -0.02925  0.00089 -0.00857 -0.02939
    C35      Z     0.08879 -0.02598  0.01817 -0.06176  0.03446  0.02585
    H36      X    -0.06110  0.03509  0.02801  0.00997 -0.00626  0.02037
    H36      Y     0.06698 -0.02724 -0.02982  0.01327 -0.02572 -0.05994
    H36      Z     0.13183 -0.02189  0.00690 -0.13327  0.13137  0.18245
    H37      X    -0.02844  0.02348 -0.02340  0.04990 -0.02438 -0.03223
    H37      Y     0.05140 -0.03562 -0.02867  0.05728 -0.08644 -0.16451
    H37      Z     0.07674 -0.03713  0.03561 -0.04363 -0.01139 -0.05333
    H38      X    -0.00141 -0.00186  0.02408 -0.01882 -0.00688 -0.01874
    H38      Y     0.12093 -0.02643 -0.05449 -0.05151  0.06946  0.08718
    H38      Z     0.09114 -0.03709  0.03500 -0.06777  0.01702 -0.00976
    C39      X    -0.02304  0.02035 -0.00549  0.00707 -0.00477  0.02058
    C39      Y     0.01767  0.04532 -0.03512 -0.01213 -0.00712  0.02528
    C39      Z     0.03252 -0.01780  0.00202  0.01836 -0.02343 -0.03752
    H40      X    -0.02457  0.05968 -0.03514 -0.00967  0.01558  0.08510
    H40      Y     0.02768  0.06875 -0.06795  0.00913 -0.02478 -0.00576
    H40      Z     0.04177 -0.01348 -0.01431  0.04299 -0.04636 -0.08920
    H41      X    -0.02146 -0.01214  0.02104  0.00874  0.00021 -0.00266
    H41      Y     0.01840  0.06746 -0.05515 -0.01098 -0.01063  0.03649
    H41      Z     0.02101 -0.04118  0.03496  0.00223 -0.01907 -0.02031
    H42      X    -0.02283  0.02068 -0.00889  0.02013 -0.02976 -0.01533
    H42      Y     0.00429  0.04457 -0.01747 -0.03974  0.01244  0.08408
    H42      Z     0.03880 -0.01751 -0.00745  0.03597 -0.04131 -0.07760
    C43      X     0.01293 -0.03543 -0.02489  0.03450 -0.06886  0.05007
    C43      Y    -0.04661  0.03202 -0.00282 -0.02093  0.05147 -0.03003
    C43      Z    -0.07151 -0.04137 -0.05057  0.01282  0.06091 -0.01679
    H44      X     0.05730 -0.02374 -0.00606  0.07086 -0.17768  0.11895
    H44      Y    -0.06053  0.04801  0.00606 -0.07365  0.11668 -0.09586
    H44      Z    -0.08704 -0.05711 -0.06639  0.02536  0.08028 -0.01383
    H45      X    -0.00097 -0.07324 -0.05124  0.04724 -0.08818  0.07843
    H45      Y    -0.03253  0.01596 -0.01251  0.02560 -0.01464  0.03235
    H45      Z    -0.04365 -0.02700 -0.03899  0.05523  0.00189  0.03054
    H46      X    -0.02122 -0.04337 -0.03845  0.00570  0.01605 -0.00344
    H46      Y    -0.05771  0.05217  0.00354 -0.02563  0.11037 -0.06566
    H46      Z    -0.11028 -0.06576 -0.07331 -0.02291  0.13605 -0.06517
    C47      X     0.01247  0.00754 -0.02445 -0.02509 -0.01981 -0.01213
    C47      Y    -0.03061 -0.00357 -0.02337  0.03235 -0.01932  0.01069
    C47      Z    -0.04341  0.00086 -0.07690 -0.01298 -0.00283 -0.01225
    H48      X     0.01287  0.01629 -0.02572  0.00741 -0.00006 -0.04864
    H48      Y    -0.03730 -0.00804 -0.03082  0.05980 -0.03117  0.03123
    H48      Z    -0.03455  0.01616 -0.06881 -0.01077  0.03521 -0.08059
    H49      X     0.00997  0.00710 -0.05196 -0.06901 -0.02118 -0.03827
    H49      Y    -0.04231 -0.01832 -0.05625 -0.00228 -0.05907  0.05639
    H49      Z    -0.05198 -0.01210 -0.08790 -0.01544 -0.03714  0.04525
    H50      X     0.01289  0.00022 -0.01960 -0.05239 -0.03866  0.02594
    H50      Y    -0.02118  0.01066  0.00717  0.07585  0.01794 -0.03104
    H50      Z    -0.05305 -0.00531 -0.11156 -0.02674 -0.01927 -0.01146
    H51      X    -0.00630  0.00277  0.03152 -0.02640  0.00157 -0.00697
    H51      Y     0.04096  0.00405 -0.01105 -0.03117  0.03766  0.09510
    H51      Z     0.04512  0.00448 -0.02834  0.01795  0.00607  0.02029
    H52      X     0.01789  0.04400  0.02303 -0.00920  0.02198 -0.03151
    H52      Y    -0.03338  0.01932 -0.00629 -0.03117  0.00913 -0.02042
    H52      Z    -0.04582 -0.03395 -0.03682 -0.02528  0.01939 -0.03493
    H53      X     0.02089  0.00876  0.02714  0.04349 -0.01629  0.03018
    H53      Y    -0.01479  0.01037  0.00973  0.00337  0.01361 -0.03287
    H53      Z    -0.02803  0.01217 -0.02588 -0.00308  0.02477 -0.02938
    H54      X    -0.02319 -0.01274  0.01901  0.01588 -0.01728 -0.02652
    H54      Y     0.01480 -0.01468  0.02128 -0.02072  0.00677  0.01341
    H54      Z     0.02634  0.00059  0.00212 -0.02476  0.03000  0.07845
    H55      X     0.02633  0.07426  0.01019 -0.10791  0.09795 -0.06225
    H55      Y    -0.01564 -0.02219 -0.03392  0.01793 -0.04678  0.01142
    H55      Z     0.04648  0.05760 -0.02798 -0.03239  0.08336 -0.07021
    H56      X     0.03583  0.09009  0.01155 -0.12216  0.12575 -0.09966
    H56      Y     0.00995  0.01727 -0.03810 -0.06511  0.02174 -0.02260
    H56      Z     0.01322  0.00280 -0.02575  0.04836 -0.01246  0.02290
    H57      X     0.00511  0.03599 -0.00140 -0.01461  0.02328 -0.00554
    H57      Y    -0.03697  0.00020  0.01994 -0.13660  0.02172  0.03336
    H57      Z     0.01014 -0.01469 -0.03827  0.10960 -0.04762  0.03786
    H58      X    -0.01688  0.05030  0.02532 -0.13315  0.06337  0.01957
    H58      Y    -0.02790 -0.00268  0.00158 -0.08523  0.00506  0.01691
    H58      Z    -0.00097  0.00440 -0.06020  0.05420 -0.02688  0.03065
  
  vibration #           19       20       21       22       23       24
                  -------- -------- -------- -------- -------- --------
  frequencies       215.80   223.80   234.37   240.87   246.00   249.01
  intensities         0.05     0.77     4.71     0.02     1.22     0.29
  reduc. mass         0.69     0.27     3.64     0.14     0.13     1.75
  force const         0.02     0.01     0.12     0.00     0.00     0.06
    Rh1      X     0.00507 -0.01593 -0.03197  0.00411  0.00221 -0.02335
    Rh1      Y    -0.01666  0.00093 -0.02364  0.00297  0.00742  0.01679
    Rh1      Z     0.00395 -0.00303  0.01155  0.00116  0.00114 -0.02027
    O2       X    -0.00671  0.00139 -0.00526 -0.00325  0.01088  0.01800
    O2       Y    -0.00834  0.03623  0.05696 -0.00335 -0.00228 -0.00295
    O2       Z    -0.00824  0.00630  0.00276 -0.00115  0.02092  0.01155
    C3       X    -0.00490 -0.00445 -0.01164 -0.00245  0.01416  0.01458
    C3       Y     0.00136 -0.00292 -0.00336  0.00001 -0.01261 -0.00543
    C3       Z    -0.01129  0.01628  0.01388 -0.00294  0.01550  0.01592
    N4       X    -0.00587  0.00344  0.00046 -0.00344  0.00600  0.01826
    N4       Y     0.00617 -0.02662 -0.03959  0.00455  0.00192 -0.00399
    N4       Z    -0.01322  0.02959  0.03404 -0.00552  0.00264  0.01908
    C5       X    -0.00574  0.02267  0.03612 -0.00561 -0.01911  0.01898
    C5       Y    -0.00329  0.01565  0.02356 -0.00133  0.01451  0.00059
    C5       Z    -0.01185  0.02163  0.02096 -0.00478 -0.00000  0.02042
    C6       X     0.00165  0.04340  0.08430 -0.00901 -0.02761  0.01137
    C6       Y    -0.01358  0.02433  0.02335 -0.00190  0.01398  0.01407
    C6       Z     0.00019 -0.02514 -0.04151  0.00227  0.00655  0.00647
    C7       X    -0.00350  0.01911  0.03464 -0.00415 -0.01258  0.01020
    C7       Y    -0.00436  0.02445  0.04083 -0.00347  0.00311  0.00573
    C7       Z    -0.00966  0.02175  0.02641 -0.00476  0.00042  0.01318
    N8       X     0.00318  0.00046  0.01721  0.00066 -0.00078 -0.00197
    N8       Y     0.00408 -0.02550 -0.03828  0.00191 -0.00488 -0.00528
    N8       Z     0.00548 -0.04137 -0.05822  0.00585  0.00994 -0.01126
    H9       X     0.01743  0.05641  0.13617 -0.01260 -0.02673 -0.00523
    H9       Y    -0.01160 -0.01277 -0.03948  0.00385  0.01945  0.01074
    H9       Z     0.00717 -0.05642 -0.08509  0.00660  0.01187 -0.00198
    H10      X    -0.00020  0.05196  0.09230 -0.01293 -0.03205  0.01932
    H10      Y    -0.01750  0.07204  0.10054 -0.00865  0.00546  0.02072
    H10      Z     0.00113 -0.04336 -0.07289  0.00411  0.00909  0.00603
    H11      X    -0.00552 -0.00442 -0.01351 -0.00276  0.01309  0.01814
[...]
    H54      Z    -0.00302  0.06708  0.00269 -0.00600 -0.00750  0.01254
    H55      X    -0.08397  0.02179  0.04527  0.12877  0.10724 -0.30209
    H55      Y    -0.04855  0.01278  0.02780  0.07416  0.06169 -0.17288
    H55      Z     0.01510 -0.00385 -0.00674 -0.02320 -0.01950  0.05510
    H56      X    -0.04062  0.00997  0.01266  0.05461  0.04251 -0.11841
    H56      Y     0.00220 -0.00061 -0.00109 -0.00334 -0.00215  0.00653
    H56      Z    -0.06967  0.01733  0.02311  0.09435  0.07344 -0.20517
    H57      X    -0.06353  0.00097 -0.11986  0.15204  0.14762 -0.51547
    H57      Y    -0.02932  0.00022 -0.05744  0.07152  0.06900 -0.24549
    H57      Z     0.00773  0.00001  0.01155 -0.01565 -0.01504  0.05453
    H58      X     0.01166  0.00167  0.01839 -0.02256 -0.02201  0.06860
    H58      Y    -0.07617 -0.00802 -0.11581  0.14379  0.14204 -0.42251
    H58      Z     0.01512  0.00213  0.02308 -0.02863 -0.02846  0.08374
  
  vibration #          163      164      165      166      167      168
                  -------- -------- -------- -------- -------- --------
  frequencies      3133.75  3136.60  3140.22  3165.95  3262.92  3588.04
  intensities        12.65    13.79     4.75     0.42     0.39    86.34
  reduc. mass         0.51     0.61     0.60     0.52     0.58     0.94
  force const         2.95     3.55     3.46     3.08     3.61     7.13
    Rh1      X     0.00001 -0.00000  0.00000  0.00003 -0.00003 -0.00000
    Rh1      Y     0.00000 -0.00000  0.00000  0.00006  0.00002 -0.00001
    Rh1      Z     0.00000  0.00000  0.00000  0.00001  0.00004 -0.00001
    O2       X     0.00000  0.00001  0.00002 -0.00003 -0.00000  0.00139
    O2       Y    -0.00000  0.00001  0.00000 -0.00006 -0.00003 -0.00009
    O2       Z     0.00001  0.00002  0.00001 -0.00011  0.00003  0.00037
    C3       X    -0.00001 -0.00005 -0.00003  0.00020 -0.00002  0.00081
    C3       Y    -0.00000 -0.00007  0.00001  0.00014  0.00021 -0.00004
    C3       Z    -0.00000 -0.00052  0.00008  0.00068  0.00029 -0.00246
    N4       X     0.00001  0.00000  0.00002  0.00007  0.00013 -0.06350
    N4       Y    -0.00000  0.00004 -0.00000 -0.00021  0.00009 -0.00147
    N4       Z    -0.00001  0.00003 -0.00002 -0.00011  0.00043 -0.03222
    C5       X    -0.00002  0.00003 -0.00002 -0.00207  0.00053  0.00037
    C5       Y     0.00005  0.00005  0.00001 -0.00323  0.00058  0.00041
    C5       Z     0.00001 -0.00006  0.00009 -0.00147 -0.00052  0.00066
    C6       X    -0.00011 -0.00003  0.00000  0.00465  0.02612  0.00006
    C6       Y    -0.00019 -0.00000 -0.00017  0.06513  0.00620  0.00023
    C6       Z    -0.00002  0.00003 -0.00011 -0.00191 -0.09029  0.00033
    C7       X    -0.00000  0.00011 -0.00005 -0.00029 -0.00019  0.00007
    C7       Y    -0.00001 -0.00007  0.00006 -0.00017 -0.00017 -0.00012
    C7       Z     0.00001 -0.00003 -0.00016  0.00027 -0.00006 -0.00005
    N8       X     0.00001 -0.00002 -0.00008  0.00018 -0.00007 -0.00002
    N8       Y     0.00001 -0.00012  0.00002  0.00011 -0.00001  0.00005
    N8       Z    -0.00000  0.00005 -0.00018 -0.00016  0.00010 -0.00006
    H9       X     0.00053  0.00002  0.00036 -0.17592 -0.12399 -0.00041
    H9       Y     0.00117  0.00004  0.00109 -0.51408 -0.37414 -0.00041
    H9       Z    -0.00130 -0.00009 -0.00129  0.55614  0.39243 -0.00027
    H10      X    -0.00041  0.00010 -0.00057  0.14421 -0.18724 -0.00004
    H10      Y     0.00038 -0.00008  0.00074 -0.21462  0.29112  0.00052
    H10      Z     0.00106 -0.00016  0.00224 -0.51929  0.67630  0.00039
    H11      X     0.00002 -0.00012 -0.00004 -0.00056 -0.00018  0.84720
    H11      Y    -0.00000 -0.00021 -0.00001  0.00099 -0.00015  0.01473
    H11      Z     0.00003 -0.00013  0.00004  0.00134  0.00066  0.45116
    H12      X     0.00001  0.00057 -0.00005 -0.00077 -0.00027 -0.00119
    H12      Y     0.00002  0.00053 -0.00010 -0.00055 -0.00010  0.00065
    H12      Z     0.00000  0.00606 -0.00083 -0.00586 -0.00170  0.01078
    P13      X    -0.00001  0.00000 -0.00008  0.00000  0.00002 -0.00002
    P13      Y    -0.00002  0.00002 -0.00003  0.00001 -0.00001 -0.00000
    P13      Z     0.00001 -0.00000  0.00004  0.00000 -0.00001 -0.00001
    P14      X     0.00003  0.00007 -0.00002 -0.00000  0.00001  0.00002
    P14      Y     0.00001  0.00002  0.00000 -0.00004  0.00000  0.00003
    P14      Z     0.00001 -0.00000 -0.00000 -0.00002 -0.00004 -0.00001
    C15      X     0.00206  0.00286  0.00225  0.00000  0.00001  0.00001
    C15      Y     0.00078  0.00122  0.00117  0.00001 -0.00000  0.00001
    C15      Z     0.00085  0.00078  0.00032  0.00000  0.00000  0.00002
    C16      X     0.00175  0.00145  0.00043 -0.00005 -0.00001 -0.00000
    C16      Y     0.00240  0.00196  0.00051 -0.00014  0.00002 -0.00001
    C16      Z    -0.00050 -0.00038 -0.00009  0.00001  0.00001  0.00000
    H17      X    -0.00037 -0.00009  0.00007 -0.00084  0.00035  0.00000
    H17      Y     0.00021 -0.00008 -0.00001  0.00020  0.00007  0.00011
    H17      Z     0.00036 -0.00001 -0.00011  0.00007 -0.00010 -0.00038
    H18      X     0.00096  0.00005 -0.00012 -0.00355 -0.00128 -0.00021
    H18      Y     0.00167 -0.00005 -0.00007 -0.00868 -0.00064  0.00016
    H18      Z     0.00030 -0.00010 -0.00004 -0.00032  0.00123 -0.00040
    C19      X     0.00359  0.00005 -0.00004  0.00000  0.00001 -0.00001
    C19      Y    -0.00489 -0.00007 -0.00004 -0.00002  0.00000 -0.00001
    C19      Z     0.00469  0.00005 -0.00008  0.00002  0.00000  0.00000
    C20      X     0.00019 -0.00028 -0.00232 -0.00011  0.00002  0.00003
    C20      Y    -0.00025  0.00036  0.00300  0.00017 -0.00008 -0.00001
    C20      Z     0.00012 -0.00035 -0.00311 -0.00013  0.00005  0.00002
    C21      X     0.00002 -0.00004  0.00001 -0.00000 -0.00001 -0.00001
    C21      Y    -0.00003  0.00009 -0.00002 -0.00003 -0.00001  0.00000
    C21      Z     0.00004 -0.00030  0.00004  0.00002 -0.00002 -0.00003
    C22      X    -0.00001 -0.00181  0.00015  0.00005 -0.00001 -0.00001
    C22      Y     0.00001  0.00261 -0.00021 -0.00003  0.00000  0.00001
    C22      Z    -0.00002 -0.00401  0.00034  0.00004 -0.00000 -0.00001
    C23      X     0.00001 -0.00064  0.00005  0.00001  0.00000 -0.00001
    C23      Y    -0.00002  0.00249 -0.00019  0.00001  0.00002  0.00002
    C23      Z     0.00001 -0.00128  0.00010  0.00002 -0.00001 -0.00001
    H24      X     0.00002 -0.00473  0.00036 -0.00006 -0.00004 -0.00003
    H24      Y     0.00007 -0.01751  0.00129 -0.00026 -0.00011 -0.00019
    H24      Z     0.00000  0.00040 -0.00005 -0.00003  0.00002  0.00004
    H25      X    -0.00009  0.00989 -0.00078 -0.00010  0.00005  0.00008
    H25      Y     0.00008 -0.00913  0.00072  0.00010 -0.00004  0.00002
    H25      Z    -0.00015  0.01972 -0.00159 -0.00019  0.00009  0.00013
    C26      X     0.00000 -0.00027  0.00001 -0.00001  0.00000  0.00000
    C26      Y    -0.00000  0.00019 -0.00000  0.00002  0.00001  0.00001
    C26      Z     0.00000 -0.00059  0.00005  0.00002 -0.00001  0.00001
    H27      X    -0.00002 -0.00143  0.00017  0.00015 -0.00000  0.00001
    H27      Y     0.00000  0.00134 -0.00017 -0.00022 -0.00004 -0.00003
    H27      Z     0.00004  0.00374 -0.00045 -0.00048 -0.00003 -0.00007
    H28      X    -0.00004  0.00412 -0.00024  0.00004  0.00006  0.00004
    H28      Y     0.00006 -0.00356  0.00018 -0.00005 -0.00008 -0.00013
    H28      Z    -0.00006  0.00448 -0.00023  0.00009  0.00008  0.00007
    C29      X     0.00049 -0.00017 -0.00132  0.00004 -0.00002 -0.00002
    C29      Y    -0.00075  0.00024  0.00206 -0.00004  0.00003 -0.00000
    C29      Z     0.00029 -0.00003 -0.00033 -0.00003  0.00003 -0.00000
    H30      X    -0.00429  0.00150  0.01128 -0.00049  0.00035 -0.00003
    H30      Y     0.00366 -0.00126 -0.00919  0.00042 -0.00031  0.00009
    H30      Z     0.00283 -0.00094 -0.00685  0.00039 -0.00030  0.00009
    H31      X    -0.00210  0.00085  0.00755 -0.00003 -0.00000  0.00004
    H31      Y     0.00611 -0.00127 -0.01125  0.00008 -0.00004 -0.00004
    H31      Z    -0.00654  0.00164  0.01446 -0.00008 -0.00000  0.00005
    C32      X     0.00209 -0.00000 -0.00019  0.00002  0.00001  0.00000
    C32      Y    -0.00052  0.00004  0.00025 -0.00000 -0.00002 -0.00000
    C32      Z     0.00344 -0.00001 -0.00041  0.00003  0.00001 -0.00000
    H33      X    -0.01178  0.00008  0.00119  0.00002 -0.00022 -0.00001
    H33      Y     0.02296 -0.00036 -0.00426  0.00014  0.00024 -0.00002
    H33      Z    -0.01575  0.00032  0.00335 -0.00010 -0.00020 -0.00001
    H34      X    -0.01713 -0.00011  0.00173 -0.00017  0.00001  0.00003
    H34      Y    -0.01391 -0.00011  0.00144 -0.00007 -0.00005  0.00005
    H34      Z    -0.02340 -0.00019  0.00227 -0.00015 -0.00004  0.00007
    C35      X    -0.00006  0.00005 -0.00001 -0.00002 -0.00001 -0.00001
    C35      Y     0.00027 -0.00024 -0.00002 -0.00004 -0.00001  0.00001
    C35      Z     0.00065 -0.00008  0.00005 -0.00001 -0.00001  0.00000
    H36      X    -0.00045  0.00038 -0.00000  0.00010 -0.00000 -0.00007
    H36      Y    -0.00402  0.00251  0.00012  0.00047  0.00011 -0.00007
    H36      Z    -0.00049  0.00042  0.00004  0.00009  0.00002 -0.00004
    H37      X    -0.00157 -0.00015 -0.00018  0.00004  0.00005  0.00010
    H37      Y     0.00207  0.00027  0.00021 -0.00004 -0.00005 -0.00009
    H37      Z    -0.00283 -0.00052 -0.00032  0.00009  0.00007  0.00013
    H38      X     0.00270 -0.00089  0.00025  0.00014  0.00002  0.00003
    H38      Y    -0.00124  0.00027 -0.00011 -0.00003  0.00000 -0.00001
    H38      Z    -0.00449  0.00125 -0.00037 -0.00014 -0.00000 -0.00007
    C39      X    -0.00002  0.00197 -0.00024  0.00003 -0.00000 -0.00001
    C39      Y     0.00013 -0.02469  0.00238 -0.00007  0.00000  0.00002
    C39      Z     0.00073 -0.08385  0.00772  0.00004 -0.00003 -0.00003
    H40      X    -0.00105  0.10486 -0.00928 -0.00027  0.00009  0.00020
    H40      Y     0.00246 -0.24572  0.02184  0.00062 -0.00011  0.00005
    H40      Z    -0.00274  0.26672 -0.02365 -0.00077  0.00014  0.00010
    H41      X    -0.00073  0.11534 -0.01067  0.00003 -0.00001 -0.00006
    H41      Y    -0.00123  0.20111 -0.01868  0.00011 -0.00003 -0.00029
    H41      Z    -0.00001  0.01029 -0.00103  0.00003  0.00001  0.00006
    H42      X     0.00195 -0.23922  0.02267 -0.00004 -0.00007  0.00002
    H42      Y    -0.00280  0.33862 -0.03174  0.00002  0.00009  0.00001
    H42      Z    -0.00589  0.71967 -0.06715  0.00020  0.00025  0.00013
    C43      X     0.00035 -0.00365 -0.03260 -0.00013  0.00005  0.00000
    C43      Y    -0.00013 -0.00071 -0.01636 -0.00001 -0.00001  0.00001
    C43      Z     0.00033 -0.00723 -0.08010 -0.00021  0.00008 -0.00000
    H44      X    -0.00124  0.02941  0.33943  0.00094 -0.00025  0.00006
    H44      Y    -0.00153  0.03477  0.39368  0.00100 -0.00032 -0.00003
    H44      Z    -0.00246  0.05535  0.63175  0.00170 -0.00044  0.00001
    H45      X    -0.00189  0.02360  0.21093  0.00063 -0.00029 -0.00000
    H45      Y     0.00267 -0.03135 -0.28170 -0.00077  0.00029 -0.00003
    H45      Z    -0.00230  0.02590  0.22789  0.00062 -0.00029 -0.00001
    H46      X    -0.00110 -0.00944 -0.16097 -0.00020  0.00006 -0.00009
    H46      Y     0.00051  0.00434  0.07818  0.00006  0.00001  0.00001
    H46      Z     0.00095  0.00472  0.09662  0.00011 -0.00003  0.00008
    C47      X     0.05863  0.00041  0.00019  0.00013  0.00001 -0.00000
    C47      Y    -0.06277 -0.00044 -0.00027 -0.00014 -0.00001 -0.00000
    C47      Z     0.01913  0.00010 -0.00004  0.00010  0.00001 -0.00001
    H48      X    -0.33860 -0.00253 -0.00184 -0.00045 -0.00002 -0.00008
    H48      Y     0.39321  0.00292  0.00203  0.00050  0.00003  0.00006
    H48      Z     0.30957  0.00231  0.00161  0.00045  0.00001  0.00002
    H49      X    -0.31261 -0.00204 -0.00083 -0.00104 -0.00003  0.00004
    H49      Y     0.42353  0.00278  0.00103  0.00130  0.00006 -0.00009
    H49      Z    -0.48555 -0.00318 -0.00126 -0.00149 -0.00005  0.00002
    H50      X    -0.04718 -0.00037  0.00049 -0.00010 -0.00006  0.00007
    H50      Y    -0.06913 -0.00051  0.00034 -0.00017 -0.00003  0.00007
    H50      Z    -0.05532 -0.00040  0.00034 -0.00012 -0.00004  0.00008
    H51      X    -0.00024  0.00096 -0.00013  0.00001  0.00010 -0.00008
    H51      Y     0.00031 -0.00173  0.00021 -0.00002 -0.00017  0.00011
    H51      Z    -0.00053  0.00258 -0.00029  0.00010  0.00039  0.00038
    H52      X    -0.00243  0.00341  0.02826  0.00231 -0.00141  0.00003
    H52      Y     0.00254 -0.00425 -0.03542 -0.00319  0.00225  0.00002
    H52      Z    -0.00227  0.00370  0.03120  0.00269 -0.00155 -0.00007
    H53      X    -0.03713 -0.00043  0.00042 -0.00006 -0.00009  0.00004
    H53      Y     0.05239  0.00056 -0.00026  0.00019  0.00003  0.00002
    H53      Z    -0.05368 -0.00062  0.00036 -0.00010 -0.00013  0.00006
    H54      X    -0.00000  0.01595 -0.00137 -0.00021  0.00003  0.00004
    H54      Y     0.00003 -0.03262  0.00269  0.00007 -0.00004  0.00000
    H54      Z     0.00000  0.04282 -0.00356 -0.00032  0.00007  0.00007
    H55      X    -0.01704 -0.02633 -0.02589 -0.00009 -0.00007 -0.00004
    H55      Y    -0.00950 -0.01493 -0.01331 -0.00007 -0.00004 -0.00003
    H55      Z     0.00291  0.00505  0.00340 -0.00001  0.00002 -0.00001
    H56      X    -0.00753 -0.00812 -0.00192  0.00005 -0.00004  0.00004
    H56      Y     0.00089  0.00037  0.00071 -0.00000  0.00000 -0.00010
    H56      Z    -0.01336 -0.01381 -0.00584  0.00013 -0.00004  0.00005
    H57      X    -0.02396 -0.01918 -0.00594  0.00090  0.00002 -0.00003
    H57      Y    -0.01111 -0.00922 -0.00274  0.00038  0.00001 -0.00001
    H57      Z     0.00271  0.00235  0.00072 -0.00001 -0.00001 -0.00002
    H58      X     0.00259  0.00250  0.00063 -0.00010 -0.00002  0.00004
    H58      Y    -0.01723 -0.01402 -0.00377  0.00107 -0.00004 -0.00007
    H58      Z     0.00338  0.00291  0.00063 -0.00005 -0.00002  0.00006
  
  Number of imaginary frequencies:   1
   
  Writing vibrational animation data to 7RR-Me-BPEpro-RConformation2fromJCTCSI_isomer6.vib
  Writing vibrational spectrum data to 7RR-Me-BPEpro-RConformation2fromJCTCSI_isomer6_vib.spm
  rotational symmetry number:  1

  rotational temperatures (K):      0.011762      0.008083      0.007123
   
    1 vibrational frequencies below  10.0 cm-1 not included in zero-point
  energy or thermochemical analysis.  Set freqcut to change the frequency
  cutoff value.

  vibrational temperatures:
       mode:      2        3        4        5        6        7
  temp. (K):    33.16    50.53    59.25    80.79   105.79   114.49
   
       mode:      8        9       10       11       12       13
  temp. (K):   119.66   125.06   149.08   178.07   191.97   203.40
   
       mode:     14       15       16       17       18       19
  temp. (K):   225.40   241.31   277.70   293.64   302.74   310.49
   
       mode:     20       21       22       23       24       25
  temp. (K):   322.00   337.21   346.55   353.94   358.26   368.62
   
       mode:     26       27       28       29       30       31
  temp. (K):   374.65   380.25   395.31   415.45   442.17   480.30
   
       mode:     32       33       34       35       36       37
  temp. (K):   502.61   515.19   544.14   562.17   576.10   579.87
   
       mode:     38       39       40       41       42       43
  temp. (K):   606.07   620.07   625.28   688.11   697.29   714.74
   
       mode:     44       45       46       47       48       49
  temp. (K):   775.85   776.88   822.04   828.58   856.59   859.60
   
       mode:     50       51       52       53       54       55
  temp. (K):   876.25   893.03   902.20   940.62   984.79  1000.95
   
       mode:     56       57       58       59       60       61
  temp. (K):  1034.67  1072.11  1172.92  1182.53  1196.97  1214.38
   
       mode:     62       63       64       65       66       67
  temp. (K):  1231.39  1232.69  1290.04  1302.73  1337.67  1351.11
   
       mode:     68       69       70       71       72       73
  temp. (K):  1351.82  1362.60  1364.87  1436.89  1439.07  1446.75
   
       mode:     74       75       76       77       78       79
  temp. (K):  1451.03  1455.61  1457.40  1475.51  1484.59  1486.77
   
       mode:     80       81       82       83       84       85
  temp. (K):  1546.61  1548.90  1571.26  1574.86  1577.30  1584.73
   
       mode:     86       87       88       89       90       91
  temp. (K):  1607.94  1611.56  1638.00  1641.55  1676.20  1707.02
   
       mode:     92       93       94       95       96       97
  temp. (K):  1716.30  1733.45  1762.51  1766.19  1826.43  1844.13
   
       mode:     98       99      100      101      102      103
  temp. (K):  1853.49  1859.72  1865.14  1868.90  1885.80  1893.54
   
       mode:    104      105      106      107      108      109
  temp. (K):  1896.39  1899.25  1911.09  1957.63  1961.19  1965.34
   
       mode:    110      111      112      113      114      115
  temp. (K):  1971.10  1972.78  2014.39  2054.47  2059.06  2059.72
   
       mode:    116      117      118      119      120      121
  temp. (K):  2061.90  2120.20  2128.88  2152.01  2156.84  2157.17
   
       mode:    122      123      124      125      126      127
  temp. (K):  2159.60  2160.85  2167.53  2169.20  2170.82  2171.24
   
       mode:    128      129      130      131      132      133
  temp. (K):  2173.25  2174.87  2180.27  2182.40  2212.95  2421.12
   
       mode:    134      135      136      137      138      139
  temp. (K):  2827.47  3016.46  3340.04  4358.89  4362.73  4368.94
   
       mode:    140      141      142      143      144      145
  temp. (K):  4370.87  4377.90  4380.04  4384.53  4391.12  4391.80
   
       mode:    146      147      148      149      150      151
  temp. (K):  4392.90  4396.77  4399.09  4407.71  4414.58  4454.28
   
       mode:    152      153      154      155      156      157
  temp. (K):  4460.52  4461.87  4466.37  4477.20  4483.02  4485.79
   
       mode:    158      159      160      161      162      163
  temp. (K):  4487.04  4488.20  4493.19  4493.64  4496.54  4508.76
   
       mode:    164      165      166      167      168
  temp. (K):  4512.86  4518.06  4555.08  4694.61  5162.38
   
   
  Thermodynamic properties calculated assuming an ideal gas

  In the table below, the units for temperature
  are kelvins, the units for U, H, and G are
  kJ/mol and the units for Cv and S are J/(mol K)

  The zero point energy (ZPE):   1303.313 kJ/mol
  is not included in U, H, or G in the table below
  
 
  =============================================================================
  Thermodynamic properties for P =     1.00 atm, calculated at   1 temperatures


  T =   298.15 K, P =     1.00 atm
   
                  U         Cv          S          H          G        ln(Q)
              =========  =========  =========  =========  =========  =========
  trans.          3.718     12.472    185.189      6.197    -49.017   19.77309
  rot.            3.718     12.472    147.344      3.718    -40.212   16.22135
  vib.           67.298    436.097    432.616     67.298    -61.687   24.88411
  elec.           0.000      0.000      0.000      0.000      0.000    0.00000
  ----------------------------------------------------------------------------
  total          74.735    461.041    765.148     77.214   -150.915   60.87855
   
   Total internal energy, Utot(SCFE + ZPE + U):   -1682.687775 hartrees
              Total enthalpy, Htot (Utot + pV):   -1682.686831 hartrees
    Total Gibbs free energy, Gtot (Htot - T*S):   -1682.773721 hartrees
   
  Peak memory usage:   1417 Mb
  
  end of program freq
   
 Time(freq)  user:        1.3  user+sys:        1.3  wallclock:        7.3

 Total cpu seconds     user:   15089.388   user+sys:   15089.388
  
 Total elapsed time:    6129 seconds

Job 7RR-Me-BPEpro-RConformation2fromJCTCSI_isomer6 completed on seskscpn208.prim.scp at Wed Oct 18 12:03:12 2023
