Job 8RR-Me-BPEpro-SConformation1fromJCTCSI_isomer7 started on seskscpn228.prim.scp at Wed Oct 18 10:20:53 2023
jobid: seskscpn324-0-652fb172

  +--------------------------------------------------------------------+
  |  Jaguar version 10.6, release  12                                  |
  |                                                                    |
  |  Copyright Schrodinger, Inc.                                       |
  |  All Rights Reserved.                                              |
  |                                                                    |
  |  The following have contributed to Jaguar (listed alphabetically): |
  |  Mike Beachy, Art Bochevarov, Dale Braden, Yixiang Cao,            |
  |  Alan Chien, Chris Cortis, Rich Friesner, Bill Goddard,            |
  |  Hod Greeley, Tom Hughes, Leif Jacobson, Jean-Marc Langlois,       |
  |  Daniel Levine, Daniel Mainz, Rob Murphy, Dean Philipp,            |
  |  Tom Pollard, Murco Ringnalda, Mark Watson, Haoyu Yu.              |
  |                                                                    |
  |  Use of this program should be acknowledged in publications as:    |
  |                                                                    |
  |  Jaguar, version 10.6, Schrodinger, Inc., New York, NY, 2019.      |
  |                                                                    |
  |  A. D. Bochevarov, E. Harder, T. F. Hughes, J. R. Greenwood,       |
  |  D. A. Braden, D. M. Philipp, D. Rinaldo, M. D. Halls,             |
  |  J. Zhang, R. A. Friesner, "Jaguar: A High-Performance Quantum     |
  |  Chemistry Software Program with Strengths in Life and Materials   |
  |  Sciences", Int. J. Quantum Chem., 2013, 113(18), 2110-2142.       |
  +--------------------------------------------------------------------+
  
  start of program pre
  
  Job name: 8RR-Me-BPEpro-SConformation1fromJCTCSI_isomer7
  Executables used: /opt/scp/software/schrodinger/2019-4/jaguar-v10.6/bin/Linux-x86_64
  Temporary files : /scratch/kzdq760/8RR-Me-BPEpro-SConformation1fromJCTCSI_isomer7#seskscpn324-0-652fb172
  Maestro file (input):  8RR-Me-BPEpro-SConformation1fromJCTCSI_isomer7.mae
  Maestro file (output): 8RR-Me-BPEpro-SConformation1fromJCTCSI_isomer7.01.mae
  
 Contents of input file: &gen section only
 ----------------Contents start----------------
&gen
isymm=0
basis=LACVP**
gdftgrad=-13
gdftmed=-13
icanorb=1
molchg=1
gdftfine=-13
dftname=B3LYP
eunit=2
ifreq=1
ncanorb=522
iacc=1
&
 -----------------Contents end-----------------
 
  basis set:             lacvp**                         
  net molecular charge:    1
  multiplicity:            1
  
  keygrid settings 
    wispc.....   7.500E-01
    ldens.....   0
    denspc....   7.500E-01
  
   grid     daf set  nls  grid set  Q type
  ------    -------  ---  --------  ------
  coarse       1      1       1        1
  medium       2      2       2        1
  fine         3      2       3        0
  ultrafine    4      2       4        1
  charge       0      1       0        1
  gradient     5      2       4        1
  density      0      1       0        0
  DFT-fine     0      1     -13        0
  DFT-med.     0      1     -13        0
  DFT-grad     0      1     -13        0
  DFT-der2     0      1      -8        0
  DFT-cphf     0      1      -9        0
  LMP2-enrg    4      2       4        1
  LMP2-grad    5      2       2        1
  DFT-cphf2    0      1     -15        0
  PBF-dens     0      1       0        0
  plotting     0      1       0        0
  Rel-grad     0      1     -17        0
  
  idftgrdm  100
  ndftgrdm   50    0    0
  idftgrdf  111
  ndftgrdf   85    0    0
  idftgrdg  111
  ndftgrdg   80    3    0
  idftgrdu  433
  ndftgrdu  105    0    0
  idftgrdd  433
  ndftgrdd  105    0    0
  idftgrdc  433
  ndftgrdc   26    0    0
  idftgrdp  433
  ndftgrdp   18    0    0
  
  Using up to   3 threads per process
  
  This run will use ECP on 1 atom
  number of basis functions....          522
  
 Input geometry:
                                   angstroms
  atom               x                 y                 z
  Rh1           0.0000000000      0.0000000000      0.0000000000 
  O2            0.0000000000      0.0000000000      2.2276000000 
  C3            1.1285400000      0.0000000000      2.7549300000 
  N4            2.2616100000      0.1103600000      2.0477900000 
  C5            2.2143900000      0.4059300000      0.6363600000 
  C6            1.6148000000      1.6310700000      0.2342900000 
  C7            3.1430000000     -0.3111900000     -0.1723600000 
  N8            3.9161500000     -0.9034300000     -0.8138700000 
  H9            1.4080500000      2.3581400000      1.0139800000 
  H10           1.8910100000      2.0459100000     -0.7253900000 
  H11           3.1550300000      0.1034700000      2.5276800000 
  H12           1.2416600000     -0.0964400000      3.8405800000 
  P13          -0.3753600000     -0.0832100000     -2.2777700000 
  P14          -0.2863300000     -2.3834000000      0.0088900000 
  C15          -0.4358900000     -1.8881400000     -2.7564800000 
  C16          -1.0148200000     -2.7836800000     -1.6575900000 
  H17          -1.5583200000      0.0459500000     -0.0597200000 
  H18          -0.0517800000      1.6273600000     -0.0784500000 
  C19          -1.9619300000      0.7412400000     -2.8438200000 
  C20           0.6836400000      0.6605900000     -3.6683900000 
  C21          -1.4506000000     -3.2086000000      1.2375700000 
  C22           1.1646600000     -3.5383600000      0.3531700000 
  H23          -2.0055800000      1.6478600000     -2.2265900000 
  H24           1.8264400000     -2.9470400000      0.9987900000 
  H25          -2.0501300000     -3.8912300000      0.6185100000 
  H26           0.8024300000     -0.1960200000     -4.3460600000 
  C27           0.5539700000     -4.6790900000      1.1986000000 
  H28           0.0954900000     -5.4240000000      0.5344000000 
  H29           1.3373200000     -5.1967400000      1.7629200000 
  C30          -0.5171500000     -4.0713800000      2.1141200000 
  H31          -0.0462900000     -3.4426600000      2.8821700000 
  H32          -1.0924500000     -4.8392600000      2.6419600000 
  C33          -0.2440400000      1.6880400000     -4.3557100000 
  H34          -0.1805500000      2.6483700000     -3.8270800000 
  H35           0.0928000000      1.8672700000     -5.3822100000 
  C36          -1.6825200000      1.1602200000     -4.3007100000 
  H37          -2.4078200000      1.9131400000     -4.6268100000 
  H38          -1.7978200000      0.2973700000     -4.9706200000 
  C39          -3.2514000000     -0.0544900000     -2.6332300000 
  H40          -3.4127200000     -0.2972300000     -1.5782300000 
  H41          -4.1088100000      0.5399700000     -2.9650900000 
  H42          -3.2575200000     -0.9844200000     -3.2118700000 
  C43           2.0757300000      1.2061100000     -3.3485200000 
  H44           2.7030300000      0.4868400000     -2.8174100000 
  H45           2.5864600000      1.4581200000     -4.2839200000 
  H46           2.0185700000      2.1306000000     -2.7649600000 
  C47          -2.3932500000     -2.2829800000      2.0101900000 
  H48          -3.0580700000     -1.7291400000      1.3404500000 
  H49          -3.0224000000     -2.8753300000      2.6832100000 
  H50          -1.8386300000     -1.5552100000      2.6064800000 
  C51           1.9701000000     -4.0030500000     -0.8648200000 
  H52           2.4571200000     -3.1693500000     -1.3774600000 
  H53           2.7617700000     -4.6862100000     -0.5389100000 
  H54           1.3485100000     -4.5509000000     -1.5811000000 
  H55          -0.8673600000     -3.8416500000     -1.8983600000 
  H56          -2.0937100000     -2.6236700000     -1.5576600000 
  H57          -0.9984700000     -1.9900800000     -3.6917700000 
  H58           0.6000500000     -2.1721700000     -2.9739200000 
   
  principal moments of inertia:
        amu*angstrom^2:     2018.76390     2996.54060     3449.16675
                g*cm^2: 3.35223591E-37 4.97587211E-37 5.72747543E-37
   
  rotational constants:
               cm^(-1):      0.00835047      0.00562570      0.00488745
                   GHz:      0.25034082      0.16865415      0.14652206
   
  Molecular weight:     459.12 amu
   
  Stoichiometry: RhC18P2N2H34O
  Molecular Point Group: C1      
  Point Group used: C1 (symmetry turned off)
  
  nuclear repulsion energy.......    3034.596741049 hartrees
  
  Detected an organometallic with only one TM atom. 
  
  Oxidation state on metal       1 is     3
  Formal multiplet on metal      1 is     1
  Formal charge on ligand        4 is    -1
  Formal multiplet on ligand     4 is     1
  Formal charge on ligand        5 is    -1
  Formal multiplet on ligand     5 is     1
  
 
  Will use High-Quality Initial guess for organometallics
       including d-d repulsion (iguess=30)
 
 Non-default options chosen:
   SCF calculation type: DFT(b3lyp)                  
   DFT=Becke_3_Parameter/HF+Slater+Becke88+VWN+LYP (B3LYP)
   Vibrational frequencies and related properties will be computed
      from analytic second derivatives
   IR intensities will be computed
   Thermochemical properties will be computed
   Thermochemical data will be printed in Joules
   Molecular symmetry not used
   Highest accuracy cutoffs used in SCF
  
 Temporary integer options set:
     21= -1  73=  2
  
   Fixing number of canonical orbitals to remain constant.
   Number of canonical orbitals to use:   522
  
  Peak memory usage:   1276 Mb
  
  end of program pre
   
 Time(pre)  user:        1.9  user+sys:        1.9  wallclock:        1.6
  
  start of program onee
  
  smallest eigenvalue of S:    1.045E-03
  Set cut 20/10 to   1.043991389572643E-003
  number of canonical orbitals.....          522
  Peak memory usage:   1315 Mb
  
  end of program onee
   
 Time(onee)  user:        2.0  user+sys:        2.0  wallclock:        0.8
  
  start of program hfig
  
  initial wavefunction generated automatically from atomic wavefunctions
  Only one state below 0.010000
  Skip d-d repulsion considerations 
 
  Irreducible     Total no   No of occupied orbitals 
  representation  orbitals   Shell_1  Shell_2    ...
  No Symm          522        105
  ------------------------
  Orbital occupation/shell    1.000
 
  Peak memory usage:   1244 Mb
  
  end of program hfig
   
 Time(hfig)  user:        0.9  user+sys:        0.9  wallclock:        0.7
  
  start of program probe
  
  Peak memory usage:   1233 Mb
  
  end of program probe
   
 Time(probe)  user:        0.8  user+sys:        0.8  wallclock:        0.4
  
  start of program grid
  
   grid     grid set  grid #  grid sym
  ------    --------  ------  --------
  coarse        0        0        1
  medium        2        1        1
  fine          0        0        1
  ultrafine     4        2        1
  charge        0        0        1
  gradient      4        2        1
  density       0        0        1
  DFT-fine    -13        3        1
  DFT-med.    -13        3        1
  DFT-grad    -13        3        1
  DFT-der2     -8        4        1
  DFT-cphf     -9        5        1
  LMP2-enrg     4        2        1
  LMP2-grad     2        1        1
  DFT-cphf2   -15        6        1
  PBF-dens      0        0        1
  plotting      0        0        1
  Rel-grad    -17        0        1
  
  number of gridpoints: 
     atom       Rh1       O2       C3       N4       C5       C6       C7
  grid # 1      299      116       83      102       92       82      101
  grid # 2      234      474      298      337      358      268      385
  grid # 3    35544    23820    15816    16030    15816    15816    15816
  grid # 4    32864    23252    13988    14170    13988    13988    13988
  grid # 5     1144      774      748      756      748      748      748
  grid # 6     2168      416      394      406      394      394      394
   
  number of gridpoints: 
     atom        N8       H9      H10      H11      H12      P13      P14
  grid # 1      121      112      107      116      117      611      611
  grid # 2      492      452      431      450      466      429      434
  grid # 3    16030    17074    17074    17074    17074    24032    24032
  grid # 4    14170    15058    15058    15058    15058    23016    23016
  grid # 5      756      786      786      786      786      722      722
  grid # 6      406      420      420      420      420      370      370
   
  number of gridpoints: 
     atom       C15      C16      H17      H18      C19      C20      C21
  grid # 1       81       81      100      104       80       79       79
  grid # 2      300      301      449      446      330      329      330
  grid # 3    15816    15816    17074    17074    15816    15816    15816
  grid # 4    13988    13988    15058    15058    13988    13988    13988
  grid # 5      748      748      786      786      748      748      748
  grid # 6      394      394      420      420      394      394      394
   
  number of gridpoints: 
     atom       C22      H23      H24      H25      H26      C27      H28
  grid # 1       80      103      103      104      103       92      109
  grid # 2      326      443      440      438      437      278      447
  grid # 3    15816    17074    17074    17074    17074    15816    17074
  grid # 4    13988    15058    15058    15058    15058    13988    15058
  grid # 5      748      786      786      786      786      748      786
  grid # 6      394      420      420      420      420      394      420
   
  number of gridpoints: 
     atom       H29      C30      H31      H32      C33      H34      H35
  grid # 1      112       91      108      112       92      109      112
  grid # 2      451      279      444      451      278      446      450
  grid # 3    17074    15816    17074    17074    15816    17074    17074
  grid # 4    15058    13988    15058    15058    13988    15058    15058
  grid # 5      786      748      786      786      748      786      786
  grid # 6      420      394      420      420      394      420      420
   
  number of gridpoints: 
     atom       C36      H37      H38      C39      H40      H41      H42
  grid # 1       91      112      108       81      104      110      104
  grid # 2      278      450      444      236      436      457      438
  grid # 3    15816    17074    17074    15816    17074    17074    17074
  grid # 4    13988    15058    15058    13988    15058    15058    15058
  grid # 5      748      786      786      748      786      786      786
  grid # 6      394      420      420      394      420      420      420
   
  number of gridpoints: 
     atom       C43      H44      H45      H46      C47      H48      H49
  grid # 1       79      106      108      102       79      107      108
  grid # 2      242      433      455      429      239      446      455
  grid # 3    15816    17074    17074    17074    15816    17074    17074
  grid # 4    13988    15058    15058    15058    13988    15058    15058
  grid # 5      748      786      786      786      748      786      786
  grid # 6      394      420      420      420      394      420      420
   
  number of gridpoints: 
     atom       H50      C51      H52      H53      H54      H55      H56
  grid # 1      104       81      104      110      104      104       99
  grid # 2      436      236      438      457      435      440      434
  grid # 3    17074    15816    17074    17074    17074    17074    17074
  grid # 4    15058    13988    15058    15058    15058    15058    15058
  grid # 5      786      748      786      786      786      786      786
  grid # 6      420      394      420      420      420      420      420
   
  number of gridpoints: 
     atom       H57      H58    total
  grid # 1      102       99     7010
  grid # 2      441      434    22790
  grid # 3    17074    17074  1004692
  grid # 4    15058    15058   894244
  grid # 5      786      786    45062
  grid # 6      420      420    25508
   
  Peak memory usage:   1259 Mb
  
  end of program grid
   
 Time(grid)  user:       90.0  user+sys:       90.0  wallclock:       30.9
  
  start of program rwr
  
  Peak memory usage:   1232 Mb
  
  end of program rwr
   
 Time(rwr)  user:       12.5  user+sys:       12.5  wallclock:        6.5
  
  start of program scf
  
 number of electrons..........        210
 number of alpha electrons....        105
 number of beta electrons.....        105
 number of orbitals, total....        522
 number of doubly-occ'd orbs..        105
 number of open shell orbs....          0
 number of occupied orbitals..        105
 number of virtual orbitals...        417
 number of hamiltonians.......          1
 number of shells.............          1
 SCF type: DFT=Becke_3_Parameter/HF+Slater+Becke88+VWN+LYP (B3LYP)
 Energy computed with NOPS off.
 Convergence Criterion:
    Energy (econv):       1.00E-05
    RMS density (dconv):  5.00E-06
  
       i  u  d  i  g                   
       t  p  i  c  r                                 RMS    maximum
       e  d  i  u  i                       energy  density   DIIS  
       r  t  s  t  d       total energy    change  change    error 
  
etot    1  N  N  1  U   -1678.53695377297           3.4E-03  1.0E-01
etot    2  N  Y  1  U   -1681.95154272288  3.4E+00  3.4E-03  6.3E-02
etot    3  N  Y  1  U   -1682.26645425271  3.1E-01  2.0E-03  1.1E-01
etot    4  N  Y  1  U   -1683.01917033176  7.5E-01  1.2E-03  3.0E-02
etot    5  N  Y  1  U   -1683.15865371650  1.4E-01  6.2E-04  1.9E-02
etot    6  N  Y  1  U   -1683.20648973586  4.8E-02  1.7E-04  5.1E-03
etot    7  N  Y  1  U   -1683.21159490735  5.1E-03  5.6E-05  2.7E-03
etot    8  N  Y  1  U   -1683.21257267690  9.8E-04  2.0E-05  1.0E-03
etot    9  N  Y  1  U   -1683.21264096914  6.8E-05  6.7E-06  1.5E-04
etot   10  N  Y  1  U   -1683.21264725534  6.3E-06  3.2E-06  8.5E-05
etot   11  N  N  1  U   -1683.21264857211  1.3E-06  0.0E+00  0.0E+00
  
  
 Energy components, in hartrees:
   (A)  Nuclear repulsion............    3034.59674104922
   (E)  Total one-electron terms.....   -8360.05966696758
   (I)  Total two-electron terms.....    3642.25027734625
   (J)    Coulomb....................    3832.83046367529
   (K)    Exchange+Correlation.......    -190.58018632904
   (L)  Electronic energy............   -4717.80938962133  (E+I)
   (N)  Total energy.................   -1683.21264857211  (A+L)
   (O)  Gas phase energy.............   -1683.21264857211
  
 SCFE: SCF energy: DFT(b3lyp)     -1683.21264857211 hartrees   iterations:  11
  
 
 HOMO energy:    -0.34220
 LUMO energy:    -0.17843
 
  Orbital energies (hartrees): 
   -77.23102   -77.21108   -19.29139   -14.52182   -14.44247   -10.43558
   -10.38559   -10.35899   -10.33753   -10.32307   -10.31914   -10.31879
   -10.31236   -10.30913   -10.30786   -10.29506   -10.29434   -10.28997
   -10.28968   -10.28759   -10.28611   -10.27981   -10.27215    -6.70867
    -6.69068    -4.87012    -4.86967    -4.86861    -4.85230    -4.85162
    -4.84994    -3.26293    -2.07055    -2.06299    -2.05357    -1.19678
    -1.08636    -1.00967    -0.95417    -0.94477    -0.92390    -0.90585
    -0.88438    -0.87532    -0.83265    -0.82389    -0.81014    -0.80054
    -0.76343    -0.75370    -0.74577    -0.74374    -0.72499    -0.72060
    -0.68500    -0.67709    -0.66120    -0.64837    -0.63783    -0.61655
    -0.59667    -0.58962    -0.58431    -0.58087    -0.57091    -0.56780
    -0.56001    -0.55590    -0.54901    -0.54330    -0.53984    -0.53691
    -0.52941    -0.52359    -0.51716    -0.51360    -0.51075    -0.50651
    -0.50430    -0.49252    -0.48569    -0.48144    -0.47682    -0.47300
    -0.46639    -0.46371    -0.45991    -0.45772    -0.44834    -0.44631
    -0.44512    -0.44190    -0.44063    -0.43809    -0.43403    -0.43193
    -0.42837    -0.42291    -0.42069    -0.41178    -0.40298    -0.39963
    -0.38882    -0.38256    -0.34220    -0.17843    -0.16245    -0.13316
    -0.11397    -0.09173    -0.08615    -0.08386    -0.06970    -0.06076
    -0.05755
 
  Peak memory usage:   1736 Mb
  
  end of program scf
   
 Time(scf)  user:      451.9  user+sys:      451.9  wallclock:      170.3
  
  start of program cutabab2
  
  Peak memory usage:   1564 Mb
  
  end of program cutabab2
   
 Time(cutabab2)  user:        1.8  user+sys:        1.8  wallclock:        1.0
  
  start of program der2a
  
  Peak memory usage:   1551 Mb
  
  end of program der2a
   
 Time(der2a)  user:       33.8  user+sys:       33.8  wallclock:       12.4
  
  start of program der2b
  
  Peak memory usage:   1914 Mb
  
  end of program der2b
   
 Time(der2b)  user:     2715.7  user+sys:     2715.7  wallclock:      911.2
  
  start of program der2nda
  
 
  Peak memory usage:    976 Mb
  
  end of program der2nda
   
 Time(der2nda)  user:       15.2  user+sys:       15.2  wallclock:       15.5
  
  start of program der2ndb
  
  Peak memory usage:   1607 Mb
  
  end of program der2ndb
   
 Time(der2ndb)  user:     3479.2  user+sys:     3479.2  wallclock:     1181.0
  
  start of program rwr
  
  Peak memory usage:   1232 Mb
  
  end of program rwr
   
 Time(rwr)  user:       12.5  user+sys:       12.5  wallclock:        6.5
  
  start of program cphfa
  
      11  vectors produced in CPHF
  
     v    i  j  k  i  g
     e    t  c  c  c  r
     c    e  o  o  u  i
     t    r  r  r  t  d       RMS  
  
     1    1  5  2  6  M     5.0E-03
     1    2  5  2  6  M     4.5E-04
     1    3  0  0  6  M     2.5E-04
     1    4  0  0  6  M     9.6E-05
     1    5  0  0  6  M     3.9E-05
  
     v    i  j  k  i  g
     e    t  c  c  c  r
     c    e  o  o  u  i
     t    r  r  r  t  d       RMS  
  
     2    1  5  2  6  M     4.8E-03
     2    2  5  2  6  M     2.8E-04
     2    3  0  0  6  M     1.4E-04
     2    4  0  0  6  M     5.3E-05
     2    5  0  0  6  M     2.7E-05
  
     v    i  j  k  i  g
     e    t  c  c  c  r
     c    e  o  o  u  i
     t    r  r  r  t  d       RMS  
  
     3    1  5  2  6  M     4.8E-03
     3    2  5  2  6  M     3.4E-04
     3    3  0  0  6  M     1.4E-04
     3    4  0  0  6  M     6.1E-05
     3    5  0  0  6  M     3.8E-05
  
     v    i  j  k  i  g
     e    t  c  c  c  r
     c    e  o  o  u  i
     t    r  r  r  t  d       RMS  
  
     4    1  5  2  6  M     4.9E-03
     4    2  5  2  6  M     5.6E-04
     4    3  0  0  6  M     1.9E-04
     4    4  0  0  6  M     1.0E-04
     4    5  0  0  6  M     3.6E-05
  
     v    i  j  k  i  g
     e    t  c  c  c  r
     c    e  o  o  u  i
     t    r  r  r  t  d       RMS  
  
     5    1  5  2  6  M     5.2E-03
     5    2  5  2  6  M     4.4E-04
     5    3  0  0  6  M     2.3E-04
     5    4  0  0  6  M     9.2E-05
     5    5  0  0  6  M     4.8E-05
  
     v    i  j  k  i  g
     e    t  c  c  c  r
     c    e  o  o  u  i
     t    r  r  r  t  d       RMS  
  
     6    1  5  2  6  M     5.2E-03
     6    2  5  2  6  M     2.8E-04
     6    3  0  0  6  M     1.4E-04
     6    4  0  0  6  M     7.9E-05
     6    5  0  0  6  M     3.6E-05
  
     v    i  j  k  i  g
     e    t  c  c  c  r
     c    e  o  o  u  i
     t    r  r  r  t  d       RMS  
  
     7    1  5  2  6  M     5.0E-03
     7    2  5  2  6  M     3.6E-04
     7    3  0  0  6  M     1.3E-04
     7    4  0  0  6  M     5.3E-05
     7    5  0  0  6  M     3.2E-05
  
     v    i  j  k  i  g
     e    t  c  c  c  r
     c    e  o  o  u  i
     t    r  r  r  t  d       RMS  
  
     8    1  5  2  6  M     5.0E-03
     8    2  5  2  6  M     2.4E-04
     8    3  0  0  6  M     1.1E-04
     8    4  0  0  6  M     4.7E-05
  
     v    i  j  k  i  g
     e    t  c  c  c  r
     c    e  o  o  u  i
     t    r  r  r  t  d       RMS  
  
     9    1  5  2  6  M     4.9E-03
     9    2  5  2  6  M     2.6E-04
     9    3  0  0  6  M     1.3E-04
     9    4  0  0  6  M     5.2E-05
     9    5  0  0  6  M     2.7E-05
  
     v    i  j  k  i  g
     e    t  c  c  c  r
     c    e  o  o  u  i
     t    r  r  r  t  d       RMS  
  
    10    1  5  2  6  M     5.1E-03
    10    2  5  2  6  M     3.7E-04
    10    3  0  0  6  M     1.9E-04
    10    4  0  0  6  M     1.1E-04
    10    5  0  0  6  M     3.9E-05
  
     v    i  j  k  i  g
     e    t  c  c  c  r
     c    e  o  o  u  i
     t    r  r  r  t  d       RMS  
  
    11    1  5  2  6  M     5.0E-03
    11    2  5  2  6  M     1.8E-04
    11    3  0  0  6  M     7.5E-05
    11    4  0  0  6  M     3.2E-05
  
  
  Atomic Polar Tensors (au): Total
  =========================
  
  APT for atom Rh1     
  --------------------------------------
       -0.5826       0.1016      -0.0233
        0.3056      -0.4272       0.1745
       -0.0129       0.0776      -0.1608
  --------------------------------------
  
  APT for atom O2      
  --------------------------------------
       -0.8564      -0.0598      -0.2898
       -0.0413      -0.1596      -0.0624
       -0.3785       0.0363      -1.0304
  --------------------------------------
  
  APT for atom C3      
  --------------------------------------
        1.3398       0.0535       0.2543
        0.1111       0.2079      -0.0084
       -0.0188       0.0156       0.6226
  --------------------------------------
  
  APT for atom N4      
  --------------------------------------
       -0.6738       0.0271       0.0149
        0.0449      -0.3292      -0.0230
        0.2887       0.0138      -0.3558
  --------------------------------------
  
  APT for atom C5      
  --------------------------------------
       -0.4072      -0.2674      -0.0894
        0.3310       0.3580       0.0040
       -0.0142      -0.0873       0.4482
  --------------------------------------
  
  APT for atom C6      
  --------------------------------------
        0.7340       0.3134       0.2077
       -0.1531       0.0631       0.0398
        0.2337       0.0230       0.0689
  --------------------------------------
  
  APT for atom C7      
  --------------------------------------
        0.5324       0.0098      -0.0443
       -0.2519       0.0230       0.0326
       -0.3476       0.0136      -0.0486
  --------------------------------------
  
  APT for atom N8      
  --------------------------------------
       -0.4905      -0.0453      -0.0052
        0.1231      -0.2552       0.0269
        0.1425       0.0394      -0.2450
  --------------------------------------
  
  APT for atom H9      
  --------------------------------------
       -0.0196      -0.1009      -0.0070
       -0.0303       0.0477      -0.0145
       -0.0039      -0.0305       0.0229
  --------------------------------------
  
  APT for atom H10     
  --------------------------------------
        0.0346      -0.0453      -0.0121
       -0.0365       0.0395      -0.0052
       -0.0028      -0.0105       0.0728
  --------------------------------------
  
  APT for atom H11     
  --------------------------------------
        0.2752       0.0117       0.0623
       -0.0416       0.2861       0.0326
        0.0116       0.0308       0.1424
  --------------------------------------
  
  APT for atom H12     
  --------------------------------------
        0.0509       0.0022      -0.1111
       -0.0113       0.0887       0.0292
       -0.0424       0.0007      -0.0602
  --------------------------------------
  
  APT for atom P13     
  --------------------------------------
        0.7073      -0.1014       0.2847
       -0.0078       0.8597      -0.1108
        0.2575      -0.2157       1.1856
  --------------------------------------
  
  APT for atom P14     
  --------------------------------------
        0.8060       0.0991       0.1213
        0.1136       0.9938      -0.1963
        0.1372       0.0146       0.7284
  --------------------------------------
  
  APT for atom C15     
  --------------------------------------
       -0.1337       0.0447      -0.1635
        0.0256      -0.0384      -0.0135
        0.0094       0.0669      -0.3219
  --------------------------------------
  
  APT for atom C16     
  --------------------------------------
       -0.1063       0.0475       0.0026
       -0.1186      -0.3160       0.0923
       -0.0010      -0.0293      -0.0605
  --------------------------------------
  
  APT for atom H17     
  --------------------------------------
       -0.3212      -0.0401      -0.0571
       -0.0107       0.1309      -0.0049
        0.0466      -0.0244       0.1218
  --------------------------------------
  
  APT for atom H18     
  --------------------------------------
       -0.0479       0.0266       0.0021
       -0.2135      -0.3053      -0.0143
        0.0188      -0.0074       0.1438
  --------------------------------------
  
  APT for atom C19     
  --------------------------------------
        0.0246      -0.0764       0.1582
       -0.1254      -0.0580      -0.0601
       -0.0564      -0.0047      -0.2004
  --------------------------------------
  
  APT for atom C20     
  --------------------------------------
       -0.0785       0.1231      -0.2562
        0.0043      -0.0218      -0.1574
       -0.0715      -0.0525      -0.0077
  --------------------------------------
  
  APT for atom C21     
  --------------------------------------
       -0.0043       0.1160      -0.1112
        0.0311      -0.1408       0.0197
       -0.1186      -0.1570       0.0643
  --------------------------------------
  
  APT for atom C22     
  --------------------------------------
       -0.0861      -0.3004       0.0504
       -0.0933      -0.1619      -0.0267
        0.0493      -0.0388      -0.0897
  --------------------------------------
  
  APT for atom H23     
  --------------------------------------
        0.0178      -0.0036      -0.0139
       -0.0318      -0.0428      -0.0607
       -0.0033      -0.0174      -0.0088
  --------------------------------------
  
  APT for atom H24     
  --------------------------------------
       -0.0326      -0.0324      -0.0326
       -0.0077      -0.0268      -0.0164
       -0.0406      -0.0695      -0.0386
  --------------------------------------
  
  APT for atom H25     
  --------------------------------------
       -0.0274      -0.0529      -0.0052
       -0.0566      -0.0719      -0.0348
        0.0039       0.0246      -0.0779
  --------------------------------------
  
  APT for atom H26     
  --------------------------------------
        0.0098      -0.0234       0.0206
       -0.0020      -0.0847       0.0274
       -0.0029      -0.0259      -0.0845
  --------------------------------------
  
  APT for atom C27     
  --------------------------------------
        0.0791       0.2526      -0.0166
       -0.0014       0.0818      -0.0282
        0.0462       0.0535       0.0728
  --------------------------------------
  
  APT for atom H28     
  --------------------------------------
        0.0040      -0.0766      -0.0228
       -0.0261      -0.0201      -0.0377
       -0.0261      -0.0961      -0.0412
  --------------------------------------
  
  APT for atom H29     
  --------------------------------------
       -0.0458       0.0607      -0.0349
        0.0445      -0.0647       0.0586
       -0.0295       0.0908       0.0030
  --------------------------------------
  
  APT for atom C30     
  --------------------------------------
        0.0269      -0.0685       0.1510
        0.0336       0.0571       0.0665
        0.0266      -0.0257       0.0665
  --------------------------------------
  
  APT for atom H31     
  --------------------------------------
       -0.0052      -0.0156      -0.0649
       -0.0252      -0.0263      -0.1097
       -0.0327      -0.0539      -0.0281
  --------------------------------------
  
  APT for atom H32     
  --------------------------------------
        0.0043      -0.0302       0.0457
       -0.0450      -0.0390       0.0927
        0.0526       0.0921      -0.0280
  --------------------------------------
  
  APT for atom C33     
  --------------------------------------
        0.0305      -0.0948       0.0981
       -0.0215       0.1467      -0.0675
        0.0012       0.1265      -0.0204
  --------------------------------------
  
  APT for atom H34     
  --------------------------------------
        0.0129      -0.0083      -0.0213
       -0.0120      -0.0655      -0.0355
       -0.0220      -0.1126       0.0092
  --------------------------------------
  
  APT for atom H35     
  --------------------------------------
        0.0125      -0.0001       0.0249
       -0.0007       0.0166       0.0825
        0.0422       0.0724      -0.0933
  --------------------------------------
  
  APT for atom C36     
  --------------------------------------
       -0.0617       0.0263      -0.1325
        0.0440       0.0796       0.1580
        0.0334      -0.0218       0.1259
  --------------------------------------
  
  APT for atom H37     
  --------------------------------------
       -0.0375       0.0616      -0.0437
        0.0763      -0.0066       0.0674
       -0.0557       0.0560      -0.0268
  --------------------------------------
  
  APT for atom H38     
  --------------------------------------
        0.0297      -0.0193       0.0231
       -0.0478      -0.0727      -0.1059
       -0.0046      -0.0423      -0.0041
  --------------------------------------
  
  APT for atom C39     
  --------------------------------------
       -0.0009      -0.0195      -0.0154
        0.1099       0.0764       0.0561
       -0.0138       0.0494       0.0248
  --------------------------------------
  
  APT for atom H40     
  --------------------------------------
        0.0946      -0.0312       0.0267
       -0.0437       0.0347       0.0373
        0.0290       0.0501      -0.1009
  --------------------------------------
  
  APT for atom H41     
  --------------------------------------
       -0.0825       0.0452      -0.0504
        0.0592       0.0131       0.0355
       -0.0730       0.0323       0.0596
  --------------------------------------
  
  APT for atom H42     
  --------------------------------------
        0.0468       0.0268       0.0464
       -0.0323      -0.0671      -0.0672
        0.0090      -0.0844       0.0159
  --------------------------------------
  
  APT for atom C43     
  --------------------------------------
        0.0129       0.0220      -0.0582
        0.0596       0.0524       0.0523
        0.0432       0.1073       0.0017
  --------------------------------------
  
  APT for atom H44     
  --------------------------------------
        0.0061       0.0200      -0.0381
        0.0269      -0.0080       0.0337
       -0.0679       0.0016       0.0840
  --------------------------------------
  
  APT for atom H45     
  --------------------------------------
        0.0068      -0.0512       0.0541
       -0.0597       0.0587       0.0319
        0.0731       0.0473      -0.0674
  --------------------------------------
  
  APT for atom H46     
  --------------------------------------
        0.0218       0.0364       0.0303
       -0.0128      -0.0352      -0.1077
       -0.0180      -0.1171       0.0158
  --------------------------------------
  
  APT for atom C47     
  --------------------------------------
        0.0300       0.0551       0.0071
       -0.0591       0.0275       0.0551
        0.0083      -0.0088       0.0347
  --------------------------------------
  
  APT for atom H48     
  --------------------------------------
        0.0236       0.0786      -0.0541
        0.0875       0.0029       0.0217
       -0.0760       0.0504      -0.0159
  --------------------------------------
  
  APT for atom H49     
  --------------------------------------
       -0.0110      -0.0423       0.0918
       -0.0642      -0.0021       0.0631
        0.1121       0.0494      -0.0287
  --------------------------------------
  
  APT for atom H50     
  --------------------------------------
        0.0279      -0.0262      -0.0677
        0.0198       0.0399      -0.0577
       -0.0464      -0.0610       0.0395
  --------------------------------------
  
  APT for atom C51     
  --------------------------------------
        0.0195       0.0440       0.0675
       -0.0061      -0.0090       0.0470
       -0.0130       0.1190       0.0547
  --------------------------------------
  
  APT for atom H52     
  --------------------------------------
        0.0552      -0.0237       0.0349
       -0.0444       0.0040       0.0558
        0.0373       0.0504      -0.0043
  --------------------------------------
  
  APT for atom H53     
  --------------------------------------
       -0.0195       0.1107      -0.0147
        0.0979      -0.0091       0.0023
       -0.0318       0.0128       0.0322
  --------------------------------------
  
  APT for atom H54     
  --------------------------------------
       -0.0155      -0.0870      -0.0810
       -0.0351       0.0373      -0.0560
       -0.0264      -0.0552      -0.0234
  --------------------------------------
  
  APT for atom H55     
  --------------------------------------
        0.0809      -0.0450       0.0224
       -0.0032      -0.0850       0.0030
       -0.0083      -0.0287       0.0130
  --------------------------------------
  
  APT for atom H56     
  --------------------------------------
       -0.0416       0.0023       0.0151
        0.0340       0.0781      -0.0075
       -0.0080       0.0281       0.0100
  --------------------------------------
  
  APT for atom H57     
  --------------------------------------
        0.0586      -0.0268      -0.0296
       -0.0439       0.0391      -0.0318
       -0.0570       0.0347      -0.0899
  --------------------------------------
  
  APT for atom H58     
  --------------------------------------
       -0.0284      -0.0032       0.0496
        0.0342       0.0062       0.0223
        0.0118      -0.0019       0.0787
  --------------------------------------
  
  Peak memory usage:   1678 Mb
  
  end of program cphfa
   
 Time(cphfa)  user:     9668.9  user+sys:     9668.9  wallclock:     4354.1
  
  start of program freq
  
   
  Number of frequencies: 168
  harmonic frequencies in cm**-1, reduced masses in amu,
  force constants in mDyne/A, and
  normal modes in cartesian coordinates:         168
  IR intensities in km/mol
  
  vibration #            1        2        3        4        5        6
                  -------- -------- -------- -------- -------- --------
  frequencies      -686.21    24.16    43.11    46.84    65.42    71.56
  intensities        19.68     0.20     0.00     0.25     1.93     2.48
  reduc. mass         0.76     0.59     0.92     0.95     1.70     1.96
  force const         0.21     0.00     0.00     0.00     0.00     0.01
    Rh1      X     0.00391  0.01054  0.00331 -0.00361 -0.01420  0.01759
    Rh1      Y    -0.01550  0.00108  0.00835  0.00052 -0.00849 -0.01360
    Rh1      Z     0.00200  0.00176  0.00529 -0.00152  0.00931 -0.01293
    O2       X    -0.00169  0.02683 -0.00303 -0.01954  0.02002 -0.00680
    O2       Y    -0.00114 -0.02392  0.01407 -0.00962 -0.06512 -0.01256
    O2       Z    -0.00206  0.00251  0.00551 -0.00029  0.00919 -0.01581
    C3       X     0.00378  0.03159 -0.00513 -0.02249  0.03054 -0.01626
    C3       Y     0.00013 -0.03879  0.00439 -0.02759 -0.06466  0.01413
    C3       Z    -0.00056 -0.00735  0.00991  0.00561 -0.01192  0.00431
    N4       X    -0.00338  0.02621 -0.00158 -0.01725  0.01556 -0.00583
    N4       Y     0.00623 -0.03699 -0.00488 -0.04054 -0.02614  0.03512
    N4       Z    -0.00466 -0.01583  0.01414  0.01140 -0.02910  0.02500
    C5       X    -0.03233  0.01561  0.00507 -0.00704 -0.01348  0.01867
    C5       Y    -0.01951 -0.01544 -0.00138 -0.03223  0.01360  0.01947
    C5       Z    -0.01122 -0.01095  0.01487  0.01253 -0.01993  0.02089
    C6       X    -0.06385  0.01635  0.01176  0.01553 -0.04767  0.00784
    C6       Y     0.04761 -0.00748  0.00149 -0.01989  0.01189  0.00419
    C6       Z    -0.00988  0.01158  0.01474  0.01604  0.02278 -0.00339
    C7       X    -0.00416  0.00653  0.00565 -0.02325  0.00001  0.05688
    C7       Y     0.01173 -0.00434 -0.00150 -0.05085  0.06728  0.03227
    C7       Z     0.00127 -0.03138  0.01564  0.01011 -0.05189  0.05316
    N8       X    -0.00293 -0.00206  0.00659 -0.03918  0.01077  0.09661
    N8       Y     0.00341  0.00659  0.00041 -0.07018  0.11663  0.04419
    N8       Z     0.00301 -0.05186  0.01497  0.00864 -0.08432  0.09010
    H9       X     0.19953  0.02157  0.00950  0.02440 -0.05805 -0.01461
    H9       Y     0.08626 -0.01940  0.00018 -0.02080 -0.01595  0.01251
    H9       Z     0.03453  0.02409  0.01538  0.01923  0.04595 -0.01723
    H10      X     0.11059  0.01296  0.01842  0.02683 -0.06711  0.01291
    H10      Y     0.06928  0.00681  0.00216 -0.01949  0.04768 -0.00721
    H10      Z     0.04372  0.01693  0.01708  0.01957  0.03236 -0.00703
    H11      X    -0.00122  0.03015 -0.00330 -0.01983  0.02406 -0.01437
    H11      Y     0.00559 -0.04736 -0.01173 -0.05239 -0.02496  0.04782
    H11      Z    -0.00733 -0.02328  0.01721  0.01606 -0.04483  0.04105
    H12      X    -0.00013  0.04045 -0.01007 -0.02914  0.05176 -0.03397
    H12      Y     0.00397 -0.05437  0.00285 -0.03369 -0.09630  0.02158
    H12      Z    -0.00026 -0.00967  0.01028  0.00579 -0.01699  0.00680
    P13      X    -0.00204  0.00808  0.00732 -0.00257  0.00356 -0.00925
    P13      Y    -0.00093  0.00836  0.00651  0.01121  0.00106 -0.00391
    P13      Z     0.00083  0.00248  0.00346 -0.00140  0.00504 -0.00692
    P14      X    -0.00721  0.00097 -0.00906  0.00606 -0.01061  0.00712
    P14      Y     0.00816  0.00289  0.00704  0.00261 -0.00439 -0.01233
    P14      Z    -0.00180 -0.00296  0.00494 -0.01451  0.00419 -0.01778
    C15      X     0.00010  0.05241 -0.00948 -0.01232 -0.02175 -0.03060
    C15      Y     0.00007  0.00897  0.00584  0.01250  0.00011 -0.00021
    C15      Z    -0.00091 -0.00514  0.00769 -0.00869  0.00538 -0.02009
    C16      X    -0.00033  0.04362 -0.02300 -0.00747 -0.01606 -0.00221
    C16      Y     0.00179 -0.00412  0.01702  0.00831 -0.00186 -0.01109
    C16      Z    -0.00049 -0.02007  0.00932 -0.00888  0.00650 -0.01531
    H17      X    -0.00432  0.01071  0.00427 -0.00297 -0.01648  0.01975
    H17      Y     0.14855  0.01034  0.01966  0.00982 -0.02527 -0.01796
    H17      Z    -0.02584  0.00946  0.00137 -0.00856  0.01347 -0.00794
    H18      X     0.85548  0.01547  0.01541  0.01973 -0.06004  0.00161
    H18      Y     0.15645  0.00188  0.00824  0.00435 -0.01170 -0.01674
    H18      Z     0.12090  0.01211  0.00288  0.00780  0.02704 -0.01432
    C19      X    -0.00008 -0.01389  0.01353  0.00221  0.02600 -0.00696
    C19      Y     0.00000 -0.03353 -0.00281  0.01410  0.03159  0.02434
    C19      Z    -0.00145  0.00418 -0.01967 -0.00744 -0.00909  0.03212
    C20      X    -0.00025 -0.01054  0.02172  0.00599  0.02795 -0.02652
    C20      Y    -0.00008  0.04251 -0.01048  0.01054 -0.02861 -0.01218
    C20      Z     0.00001  0.00614  0.00238  0.00379  0.00392 -0.02211
    C21      X    -0.00039 -0.03598 -0.00222  0.03392 -0.00591 -0.00974
    C21      Y     0.00266  0.02105 -0.00208 -0.00160 -0.00686 -0.00224
    C21      Z     0.00133 -0.02573  0.00721  0.00388  0.00627 -0.02844
    C22      X     0.00237 -0.01498 -0.01350  0.02851 -0.00223 -0.00232
    C22      Y     0.00833 -0.00305 -0.00662  0.02469  0.01102 -0.01625
    C22      Z     0.00020  0.04469 -0.02588 -0.02127  0.01553  0.00574
    H23      X    -0.00084 -0.03323  0.03597  0.01325  0.05474  0.03800
    H23      Y     0.00059 -0.03001  0.03792  0.02731  0.04727  0.03365
    H23      Z    -0.00082 -0.00222 -0.07703 -0.02571 -0.02953  0.02214
    H24      X     0.00448 -0.02966 -0.01151  0.05738 -0.00933 -0.00533
    H24      Y     0.00500 -0.00236 -0.02807  0.06142  0.02617 -0.00825
    H24      Z     0.00045  0.05927 -0.00804 -0.08562  0.00916  0.00156
    H25      X     0.00284 -0.02784 -0.02681  0.07699  0.00991  0.00859
    H25      Y     0.00442  0.02192  0.02596 -0.06130 -0.02335 -0.01623
    H25      Z    -0.00426 -0.03452  0.00034  0.02737  0.00890 -0.03096
    H26      X    -0.00009  0.03059  0.09935  0.03846  0.03136 -0.02842
    H26      Y     0.00007  0.04432 -0.03660  0.00412 -0.04214 -0.01497
    H26      Z    -0.00019  0.01128  0.05004  0.01803  0.02186 -0.01857
    C27      X    -0.00116 -0.04506 -0.01979  0.07626  0.01047 -0.01124
    C27      Y     0.00447  0.00651 -0.02731  0.06269  0.01563 -0.00134
    C27      Z    -0.00171  0.03585 -0.05899  0.06631  0.03084  0.01990
    H28      X     0.00138 -0.03258 -0.03400  0.08517  0.01976 -0.00591
    H28      Y     0.00424  0.00560 -0.00038  0.00698  0.00078 -0.01261
    H28      Z    -0.00292  0.02826 -0.07949  0.12295  0.04116  0.02891
    H29      X     0.00247 -0.06353 -0.02151  0.10239  0.01573 -0.01701
    H29      Y     0.00744  0.00450 -0.05502  0.12183  0.03291  0.00808
    H29      Z    -0.00434  0.05968 -0.08198  0.08415  0.03939  0.03651
    C30      X    -0.00039 -0.06489 -0.00399  0.07253  0.00193 -0.02023
    C30      Y     0.00127  0.01968 -0.04283  0.08548  0.01669  0.01571
    C30      Z    -0.00024  0.00381 -0.03046  0.04720  0.02089 -0.00075
    H31      X    -0.00112 -0.08078  0.01207  0.06217 -0.00718 -0.02824
    H31      Y    -0.00005  0.02132 -0.07352  0.14879  0.03304  0.02998
    H31      Z     0.00087  0.01214 -0.01515  0.00184  0.01300 -0.00754
    H32      X    -0.00103 -0.08403 -0.00885  0.10528  0.00970 -0.02539
    H32      Y     0.00012  0.02696 -0.05191  0.09907  0.01736  0.02499
    H32      Z    -0.00286 -0.00648 -0.04898  0.10274  0.03031  0.00715
    C33      X     0.00004 -0.04457 -0.00108 -0.00068  0.04426 -0.03351
    C33      Y    -0.00010  0.00477 -0.08623 -0.01477 -0.03499 -0.01625
    C33      Z    -0.00018 -0.00551 -0.08432 -0.02695 -0.02772 -0.02093
    H34      X     0.00004 -0.07454 -0.02183 -0.00794  0.05703 -0.01372
    H34      Y     0.00021  0.01227 -0.04418 -0.00074 -0.02117 -0.00783
    H34      Z    -0.00033 -0.01568 -0.15869 -0.05179 -0.05447 -0.03878
    H35      X     0.00020 -0.05010  0.00031  0.00119  0.05150 -0.05450
    H35      Y     0.00047  0.00439 -0.15929 -0.03942 -0.06885 -0.03665
    H35      Z    -0.00001 -0.00736 -0.09653 -0.03060 -0.03125 -0.03132
    C36      X    -0.00024 -0.02853  0.00624  0.00120  0.03557 -0.03906
    C36      Y     0.00061 -0.03780 -0.10207 -0.01878 -0.00952  0.00014
    C36      Z    -0.00057  0.00030 -0.04911 -0.01687 -0.01885  0.01960
    H37      X     0.00021 -0.05098 -0.00219 -0.00045  0.04916 -0.03725
    H37      Y     0.00060 -0.06174 -0.13301 -0.02810 -0.00516  0.00493
    H37      Z    -0.00160 -0.00509 -0.10193 -0.03478 -0.03905  0.02656
    H38      X     0.00017 -0.00446  0.01448  0.00343  0.02173 -0.06620
    H38      Y     0.00023 -0.04681 -0.15019 -0.03438 -0.02417 -0.00745
    H38      Z    -0.00017  0.00776  0.01136  0.00280  0.00235  0.03401
    C39      X     0.00000  0.00515  0.00248 -0.00400  0.00354 -0.02136
    C39      Y     0.00023 -0.06206  0.03263  0.03016  0.07494  0.06300
    C39      Z    -0.00003  0.01294  0.04492  0.01414  0.01381  0.08769
    H40      X     0.00313  0.01479  0.01555  0.00049  0.00185  0.01076
    H40      Y     0.00073 -0.06133  0.09238  0.04957  0.10210  0.07996
    H40      Z     0.00038  0.01456  0.06059  0.01927  0.01975  0.09653
    H41      X    -0.00045 -0.00963  0.00809 -0.00040  0.01962 -0.01720
    H41      Y    -0.00007 -0.08284  0.03044  0.03262  0.09315  0.08251
    H41      Z     0.00058  0.01393  0.02661  0.00928  0.00489  0.11194
    H42      X     0.00001  0.02398 -0.02401 -0.01639 -0.02639 -0.06769
    H42      Y     0.00069 -0.06434  0.00161  0.02033  0.06249  0.05577
    H42      Z    -0.00094  0.01642  0.09503  0.03004  0.03397  0.09962
    C43      X    -0.00002 -0.03609 -0.02367 -0.01293  0.02702 -0.02591
    C43      Y    -0.00033  0.10269  0.08732  0.04741 -0.02839 -0.01129
    C43      Z     0.00060  0.01522  0.03488  0.02444  0.00596 -0.02557
    H44      X    -0.00044 -0.00847  0.00271 -0.00509  0.03044 -0.02824
    H44      Y     0.00003  0.12889  0.14177  0.06619 -0.03103 -0.00916
    H44      Z     0.00171  0.01822  0.07764  0.04095 -0.00366 -0.01837
    H45      X    -0.00003 -0.04104 -0.00637 -0.00188  0.02179 -0.02244
    H45      Y     0.00035  0.12449  0.09024  0.05235 -0.01869 -0.01762
    H45      Z     0.00076  0.01839  0.04506  0.03180  0.00557 -0.02529
    H46      X    -0.00060 -0.08106 -0.10485 -0.04769  0.02814 -0.02626
    H46      Y    -0.00048  0.10061  0.10248  0.05098 -0.03369 -0.00866
    H46      Z     0.00113  0.01425  0.00331  0.01556  0.01459 -0.02966
    C47      X    -0.00104 -0.04450  0.02901 -0.02262 -0.02733 -0.03411
    C47      Y     0.00088  0.03644 -0.00484 -0.01549 -0.01416  0.00220
    C47      Z     0.00055 -0.05437  0.04876 -0.04898 -0.01120 -0.06408
    H48      X     0.00056 -0.02636  0.02797 -0.04143 -0.03059 -0.02467
    H48      Y     0.00147  0.03527  0.02602 -0.07822 -0.03195 -0.01539
    H48      Z     0.00012 -0.07330  0.07538 -0.08237 -0.02270 -0.08824
    H49      X    -0.00007 -0.06315  0.02985 -0.00290 -0.02380 -0.04419
    H49      Y    -0.00077  0.04830 -0.01115 -0.01747 -0.01766  0.00867
    H49      Z    -0.00017 -0.06134  0.04398 -0.03231 -0.01098 -0.06781
    H50      X    -0.00028 -0.05007  0.05253 -0.06631 -0.04343 -0.05297
    H50      Y     0.00044  0.03715 -0.03073  0.03729 -0.00008  0.01705
    H50      Z     0.00020 -0.04982  0.05833 -0.07273 -0.01342 -0.06450
    C51      X    -0.00043  0.01541 -0.01459 -0.02663  0.00325  0.00512
    C51      Y     0.00285 -0.01623  0.02419 -0.03764  0.00918 -0.03097
    C51      Z    -0.00056  0.06975 -0.03842 -0.03418  0.02014  0.01670
    H52      X     0.00441  0.03012 -0.00963 -0.04924 -0.00736  0.00618
    H52      Y     0.00050 -0.02260  0.03618 -0.06364  0.01097 -0.03531
    H52      Z     0.00081  0.07337 -0.01411 -0.09780  0.01220  0.00958
    H53      X    -0.00399  0.00504 -0.01840 -0.01147  0.01150  0.00466
    H53      Y     0.00096 -0.01556  0.01088 -0.02011  0.02111 -0.02582
    H53      Z     0.00405  0.09644 -0.05708 -0.03424  0.02501  0.02835
    H54      X    -0.00164  0.03228 -0.01660 -0.05834  0.00917  0.00977
    H54      Y     0.00241 -0.02158  0.04752 -0.07463 -0.00330 -0.03883
    H54      Z     0.00095  0.05927 -0.05455  0.02171  0.02450  0.01861
    H55      X     0.00326  0.06649 -0.04112 -0.01138 -0.01845  0.00617
    H55      Y     0.00049 -0.00086  0.01410  0.00935 -0.00145 -0.00847
    H55      Z     0.00681 -0.02000  0.01066 -0.01518  0.00274 -0.02184
    H56      X    -0.00034  0.03883 -0.01994 -0.00634 -0.01548 -0.00292
    H56      Y     0.00091 -0.02274  0.03518  0.01059 -0.00099 -0.02433
    H56      Z    -0.00090 -0.04371  0.01232  0.00090  0.01379  0.00043
    H57      X    -0.00061  0.07431 -0.00870 -0.01885 -0.03184 -0.05449
    H57      Y    -0.00238  0.00133  0.01020  0.01842  0.00775  0.01000
    H57      Z     0.00010 -0.01755  0.00671 -0.00537  0.01060 -0.00692
    H58      X     0.00005  0.06248 -0.01288 -0.01508 -0.02650 -0.03652
    H58      Y     0.00017  0.02859 -0.00830  0.00890 -0.00790  0.00037
    H58      Z    -0.00062  0.01667  0.01107 -0.01686 -0.00673 -0.04987
  
  vibration #            7        8        9       10       11       12
                  -------- -------- -------- -------- -------- --------
  frequencies        81.14    87.20   110.42   114.97   126.23   135.69
  intensities         4.07     1.41     2.86     2.31     1.55     2.63
  reduc. mass         1.11     1.21     1.09     1.52     1.24     1.29
  force const         0.00     0.01     0.01     0.01     0.01     0.01
    Rh1      X    -0.00043  0.00488 -0.00410  0.01347 -0.00763 -0.01739
    Rh1      Y    -0.01075 -0.00505  0.00363  0.02269 -0.01284 -0.02084
    Rh1      Z     0.01281 -0.00217  0.01872  0.01386 -0.00469  0.00304
    O2       X     0.01201  0.01425  0.05677 -0.01766 -0.03027  0.01045
    O2       Y     0.00593 -0.01834 -0.01603  0.00175  0.10716 -0.08394
    O2       Z     0.01241  0.00081  0.01537  0.00985 -0.01689 -0.00013
    C3       X     0.01498  0.01287  0.06606 -0.02161 -0.02692  0.01503
    C3       Y     0.06790 -0.01624  0.03346 -0.01954  0.07329 -0.02645
    C3       Z     0.00577  0.00392 -0.00390  0.01906 -0.02178 -0.00869
    N4       X     0.00717  0.01255  0.05242 -0.01344 -0.02267  0.00269
    N4       Y     0.09967  0.00378  0.06498 -0.02098 -0.03402  0.03921
    N4       Z    -0.00250  0.00795 -0.02032  0.03069 -0.03277 -0.01479
    C5       X    -0.01527  0.01289  0.02967  0.00322 -0.01532 -0.01759
    C5       Y     0.05765  0.01918  0.01763  0.00590 -0.04954  0.00985
    C5       Z    -0.00982  0.01144 -0.02881  0.03554 -0.03726 -0.02072
    C6       X    -0.04244 -0.00785  0.01579  0.01645 -0.00329 -0.04202
    C6       Y     0.03631  0.01145  0.00170  0.01513 -0.04022 -0.00626
    C6       Z    -0.03215  0.02284 -0.05199  0.04370 -0.03972 -0.03292
    C7       X    -0.05171  0.04013  0.03008 -0.01095  0.02333 -0.00978
    C7       Y     0.02042  0.04982 -0.00864  0.01480 -0.01045 -0.00552
    C7       Z    -0.01767  0.01525 -0.00544  0.01234 -0.02929  0.00264
    N8       X    -0.09318  0.06948  0.04090 -0.03471  0.05924  0.00494
    N8       Y    -0.01751  0.07534 -0.04303  0.03622  0.05287 -0.04342
    N8       Z    -0.03286  0.02712  0.03889 -0.03591 -0.04456  0.05519
    H9       X    -0.03767 -0.02894  0.04006  0.00879  0.00535 -0.03399
    H9       Y     0.05310 -0.00247  0.02625  0.00907 -0.03600  0.00537
    H9       Z    -0.04652  0.03015 -0.06853  0.04738 -0.04119 -0.04205
    H10      X    -0.07156 -0.00986 -0.01405  0.02979  0.00791 -0.06985
    H10      Y     0.01661  0.02816 -0.02800  0.02231 -0.04359 -0.01918
    H10      Z    -0.04877  0.02970 -0.07276  0.04925 -0.03722 -0.04618
    H11      X     0.01007  0.01253  0.05936 -0.01898 -0.02358  0.00715
    H11      Y     0.14571  0.00053  0.08926 -0.03345 -0.03732  0.07163
    H11      Z    -0.00728  0.00783 -0.03290  0.04094 -0.03084 -0.02255
    H12      X     0.02466  0.01119  0.08600 -0.03239 -0.02864  0.02682
    H12      Y     0.10090 -0.03071  0.05369 -0.03828  0.12710 -0.02531
    H12      Z     0.00772  0.00280 -0.00417  0.01848 -0.01698 -0.00986
    P13      X     0.01892 -0.00610 -0.01187  0.03467  0.03227  0.03083
    P13      Y     0.00313 -0.00539  0.00701 -0.00319 -0.01990 -0.01508
    P13      Z     0.00964 -0.00102  0.01585  0.00329  0.00226  0.00177
    P14      X     0.02313 -0.00995 -0.03519 -0.01148 -0.03008 -0.02614
    P14      Y    -0.02268 -0.00299  0.00261  0.01942 -0.00900  0.01177
    P14      Z    -0.00638 -0.00653  0.00499 -0.00113  0.00600 -0.02622
    C15      X     0.02082 -0.00959 -0.00991  0.03186  0.02178  0.02830
    C15      Y     0.00724 -0.00537  0.00984 -0.00141 -0.01750 -0.00967
    C15      Z    -0.00266  0.00158  0.00936  0.00899 -0.00205 -0.01795
    C16      X     0.01627 -0.03620 -0.02614 -0.00607 -0.01091 -0.00249
    C16      Y     0.00175  0.01103  0.01203  0.01935 -0.00460 -0.00674
    C16      Z    -0.00995  0.00250  0.00027  0.00121 -0.00477 -0.03058
    H17      X    -0.00212  0.00544 -0.00404  0.01495 -0.01001 -0.01836
    H17      Y    -0.05325 -0.00581  0.02460  0.03633 -0.00870 -0.03643
    H17      Z     0.00929  0.00305  0.04572  0.00070 -0.00892  0.00334
    H18      X    -0.04667 -0.01006 -0.00013  0.01849 -0.00331 -0.07880
    H18      Y    -0.01257 -0.00734  0.00123  0.02192 -0.01618 -0.02260
    H18      Z     0.01927  0.00451  0.01507  0.01394 -0.04286  0.01810
    C19      X     0.02154 -0.01449 -0.01022  0.01297  0.03179  0.02654
    C19      Y     0.00884 -0.03127 -0.00902 -0.03514 -0.00829 -0.01820
    C19      Z     0.01511 -0.02135 -0.01441  0.02602  0.03511  0.03086
    C20      X     0.01925  0.00159  0.00319 -0.00459  0.02677  0.01927
    C20      Y     0.01031  0.01239 -0.00268 -0.02746  0.01942  0.00406
    C20      Z     0.00892  0.01696  0.02023 -0.03702  0.01785  0.00224
    C21      X     0.00452  0.00478 -0.02678 -0.01074 -0.01454 -0.00918
    C21      Y    -0.00892  0.02588 -0.04702 -0.00502 -0.02454  0.04767
    C21      Z    -0.01609  0.02499 -0.02304 -0.02037  0.01097  0.00726
    C22      X    -0.00033 -0.02364 -0.01395 -0.01152 -0.01550 -0.01356
    C22      Y    -0.06003 -0.03189  0.02948  0.01258  0.00764  0.04434
    C22      Z    -0.01404 -0.04144 -0.00733 -0.03168 -0.00380 -0.02209
    H23      X     0.03452 -0.05644 -0.03558 -0.00006  0.05122  0.03796
    H23      Y     0.01439 -0.04173 -0.00541 -0.03554 -0.01581 -0.02017
    H23      Z     0.00830 -0.00959 -0.02171  0.02506  0.04747  0.03455
    H24      X     0.02889  0.02066 -0.01713  0.01091 -0.01188 -0.02719
    H24      Y    -0.07163 -0.03722  0.04344  0.00395  0.01862  0.05556
    H24      Z    -0.03370 -0.08251 -0.01725 -0.04740 -0.01800 -0.01843
    H25      X     0.00853 -0.00737  0.01687  0.01550 -0.00715 -0.04133
    H25      Y    -0.01128  0.01483 -0.07060 -0.01620 -0.03777  0.04926
    H25      Z    -0.01756  0.04867 -0.03955 -0.03364  0.01840  0.03687
    H26      X     0.02721  0.01665  0.00653 -0.05003  0.04496  0.01772
    H26      Y     0.00638  0.02118 -0.01019 -0.03478  0.03305  0.00819
    H26      Z     0.01549  0.00826  0.03049 -0.03594  0.00366 -0.00322
    C27      X    -0.01942 -0.01758  0.01969 -0.00139  0.01056 -0.00478
    C27      Y    -0.03531 -0.00014  0.01780  0.01357  0.00639  0.04247
    C27      Z     0.00780  0.00704  0.00139 -0.02195  0.01300 -0.02099
    H28      X    -0.03250 -0.05121  0.04778 -0.00251  0.01903 -0.01547
    H28      Y    -0.03830 -0.00923 -0.00375  0.00911 -0.00941  0.04516
    H28      Z     0.02025  0.04054  0.00628 -0.01608  0.02496 -0.01683
    H29      X    -0.02623 -0.00904  0.03366  0.00415  0.02307 -0.00157
    H29      Y    -0.03879  0.00111  0.04915  0.01885  0.02678  0.03843
    H29      Z     0.01397 -0.00377  0.01064 -0.02496  0.01427 -0.02919
    C30      X    -0.00940  0.01956 -0.00717 -0.00123  0.00591  0.00853
    C30      Y    -0.00641  0.04068 -0.01109  0.00952 -0.00185  0.04896
    C30      Z    -0.00030  0.02358 -0.00920 -0.01748  0.01285 -0.00747
    H31      X    -0.00116  0.05108 -0.03499 -0.00338 -0.00014  0.02347
    H31      Y    -0.00058  0.05759  0.00858  0.01728  0.01342  0.05447
    H31      Z    -0.01010 -0.00952 -0.00839 -0.02240  0.00418 -0.02131
    H32      X    -0.01999  0.02604  0.01320  0.00824  0.02120  0.01852
    H32      Y     0.00940  0.06360 -0.02768  0.00644 -0.00573  0.05313
    H32      Z     0.01123  0.06398 -0.01101 -0.01156  0.02382  0.00916
    C33      X     0.01168  0.00086  0.00913 -0.02099  0.00944  0.00080
    C33      Y    -0.00195  0.01374 -0.01088 -0.02319  0.01876 -0.00031
    C33      Z     0.00028  0.02042  0.00176 -0.00742  0.03695  0.01858
    H34      X     0.01001 -0.01825 -0.00228 -0.01201  0.00557 -0.00231
    H34      Y     0.00436  0.00508 -0.00709 -0.02600  0.01141 -0.00334
    H34      Z    -0.01101  0.03854 -0.00371 -0.00323  0.05071  0.02443
    H35      X     0.00842  0.01426  0.02151 -0.04554  0.00236 -0.01145
    H35      Y    -0.01240  0.03591 -0.01608 -0.01641  0.03677  0.00975
    H35      Z    -0.00263  0.02870  0.00486 -0.01435  0.03785  0.01634
    C36      X     0.01327  0.00733  0.01176 -0.01837  0.01261  0.00423
    C36      Y    -0.00454 -0.00518 -0.01831 -0.03188  0.01053 -0.01212
    C36      Z     0.01028 -0.01051 -0.01382  0.02124  0.03882  0.02972
    H37      X     0.01073  0.00242  0.01173 -0.02933  0.00747 -0.00364
    H37      Y    -0.00866 -0.01066 -0.02595 -0.03648  0.01268 -0.01553
    H37      Z     0.00639 -0.01220 -0.03129  0.03516  0.05520  0.03951
    H38      X     0.01163  0.03082  0.02712 -0.02460  0.01080  0.00406
    H38      Y    -0.01081  0.00277 -0.02484 -0.03200  0.01960 -0.01001
    H38      Z     0.01864 -0.02478 -0.00803  0.02248  0.02740  0.02703
    C39      X     0.01688  0.00141 -0.00457  0.03766  0.03125  0.03502
    C39      Y     0.02214 -0.07169 -0.02615 -0.06952  0.00003 -0.02254
    C39      Z     0.03410 -0.07145 -0.04028  0.05152  0.05725  0.06364
    H40      X     0.02621 -0.02491 -0.02734  0.06509  0.05867  0.06923
    H40      Y     0.03109 -0.09252 -0.02251 -0.07227 -0.01247 -0.02850
    H40      Z     0.03751 -0.08022 -0.04293  0.05509  0.05853  0.06745
    H41      X     0.01868 -0.00503 -0.00448  0.01467  0.02690  0.02244
    H41      Y     0.02737 -0.09036 -0.03977 -0.09322  0.01164 -0.02370
    H41      Z     0.03885 -0.08834 -0.06492  0.06861  0.08952  0.09445
    H42      X     0.00280  0.04414  0.02208  0.05079  0.00772  0.02003
    H42      Y     0.01798 -0.06228 -0.02904 -0.06983  0.00797 -0.01931
    H42      Z     0.04087 -0.08669 -0.03571  0.05210  0.04463  0.05862
    C43      X     0.01563 -0.00806  0.00353  0.02101  0.01513  0.02137
    C43      Y     0.02756  0.02301 -0.00116 -0.06279  0.05188  0.01267
    C43      Z    -0.00295  0.04073  0.01679 -0.09223  0.01991 -0.01658
    H44      X     0.02493 -0.00854 -0.00773  0.03157  0.03426  0.02935
    H44      Y     0.04129  0.02631  0.01559 -0.09372  0.06928  0.02074
    H44      Z     0.00398  0.04546  0.05289 -0.14583  0.02033 -0.01442
    H45      X     0.00803  0.00327  0.01738 -0.02182  0.00774  0.01071
    H45      Y     0.01827  0.03383 -0.04474 -0.04213  0.06226  0.00246
    H45      Z    -0.00969  0.04988  0.01263 -0.11009  0.01866 -0.02512
    H46      X     0.01107 -0.02644  0.00459  0.07177 -0.00795  0.02646
    H46      Y     0.03703  0.01899  0.02486 -0.08366  0.05351  0.01989
    H46      Z    -0.01829  0.04501 -0.02451 -0.05351  0.01465 -0.02761
    C47      X     0.00073  0.02009 -0.08316 -0.04759 -0.02151  0.03364
    C47      Y     0.00260  0.04247 -0.08687 -0.03062 -0.03419  0.07714
    C47      Z    -0.03522  0.02431 -0.04569 -0.03584  0.01414  0.02784
    H48      X     0.01174  0.01303 -0.10381 -0.04979 -0.05069  0.02782
    H48      Y     0.00067  0.03509 -0.12990 -0.04783 -0.06356  0.08816
    H48      Z    -0.04774  0.02518 -0.06103 -0.04808  0.01896  0.04288
    H49      X    -0.01078  0.02658 -0.06115 -0.04503  0.00914  0.03863
    H49      Y     0.01204  0.05479 -0.10879 -0.04675 -0.03700  0.09511
    H49      Z    -0.03765  0.04124 -0.04449 -0.04771  0.04029  0.04832
    H50      X    -0.00193  0.03139 -0.12491 -0.07716 -0.02631  0.06738
    H50      Y     0.00420  0.04843 -0.05118 -0.01618 -0.00827  0.06628
    H50      Z    -0.03448  0.00568 -0.04798 -0.02524 -0.01163  0.00752
    C51      X    -0.03465 -0.08841 -0.02134 -0.04834 -0.03096  0.00103
    C51      Y    -0.10415 -0.07616  0.04789  0.01059  0.00959  0.06918
    C51      Z    -0.02050 -0.06765 -0.01926 -0.05624 -0.01460 -0.02157
    H52      X    -0.01204 -0.08522 -0.04614 -0.05052 -0.05267 -0.01981
    H52      Y    -0.12738 -0.09705  0.05880  0.00864  0.01249  0.08481
    H52      Z    -0.03730 -0.10044 -0.02477 -0.06177 -0.03105 -0.01535
    H53      X    -0.05518 -0.09427 -0.00094 -0.04838 -0.01398  0.01999
    H53      Y    -0.12891 -0.09364  0.06539 -0.00162  0.02460  0.09056
    H53      Z    -0.02231 -0.09039 -0.03236 -0.08189 -0.02467 -0.02328
    H54      X    -0.06385 -0.13261 -0.02010 -0.07260 -0.03575  0.01808
    H54      Y    -0.09105 -0.06822  0.03531  0.02342 -0.00530  0.05509
    H54      Z    -0.00508 -0.03502 -0.01074 -0.04471  0.00111 -0.02558
    H55      X     0.00664 -0.06764 -0.03186 -0.02577 -0.02227  0.00443
    H55      Y     0.00311  0.00664  0.01113  0.01347 -0.00766 -0.00813
    H55      Z    -0.02123  0.00328  0.00062  0.01564  0.00206 -0.01960
    H56      X     0.01795 -0.03093 -0.02577 -0.00337 -0.01011 -0.00429
    H56      Y     0.00997  0.04301  0.01928  0.04404  0.01181 -0.00552
    H56      Z    -0.00584  0.00536 -0.00704 -0.01429 -0.02461 -0.05674
    H57      X     0.02388  0.00062  0.00125  0.05225  0.03327  0.04461
    H57      Y     0.01339 -0.00394  0.01586  0.00482 -0.01376  0.00351
    H57      Z    -0.00524 -0.00459  0.00206 -0.00392 -0.00937 -0.02916
    H58      X     0.02155 -0.01053 -0.00877  0.03305  0.02077  0.02936
    H58      Y     0.00814 -0.01964  0.00556 -0.01560 -0.03332 -0.01896
    H58      Z    -0.00080  0.01662  0.02144  0.03404  0.01452  0.00010
  
  vibration #           13       14       15       16       17       18
                  -------- -------- -------- -------- -------- --------
  frequencies       141.19   151.56   169.89   192.79   207.40   213.47
  intensities         0.53     3.39     1.58     0.95     1.74     2.50
  reduc. mass         0.99     5.95     4.75     1.04     0.75     0.61
  force const         0.01     0.08     0.08     0.02     0.02     0.02
    Rh1      X     0.00426  0.03036 -0.00737  0.01956  0.01486  0.00467
    Rh1      Y     0.00624 -0.00809  0.03909 -0.01081 -0.01259  0.00993
    Rh1      Z    -0.01596 -0.03508 -0.02016  0.01061  0.00201 -0.00543
    O2       X    -0.01788  0.00624 -0.01055 -0.03872 -0.02650 -0.02819
    O2       Y    -0.07944 -0.02601 -0.01601 -0.03610 -0.05240 -0.04645
    O2       Z    -0.02647 -0.02685 -0.02790 -0.01303 -0.00849 -0.03023
    C3       X    -0.01926 -0.01020 -0.00188 -0.03764 -0.03320 -0.03866
    C3       Y    -0.04776 -0.00197 -0.05258  0.00541  0.01319  0.00568
    C3       Z    -0.02351  0.00562 -0.04693 -0.01426  0.00424 -0.01058
    N4       X    -0.01984  0.00881 -0.01361 -0.03943 -0.02532 -0.02408
    N4       Y     0.01868  0.04173 -0.02096  0.00722  0.02849  0.03021
    N4       Z    -0.01314  0.04044 -0.05863 -0.01660  0.01675  0.01332
    C5       X    -0.00981  0.03887 -0.02225 -0.03594 -0.00544  0.01237
    C5       Y     0.01124  0.05279  0.02039 -0.03115 -0.03178 -0.01285
    C5       Z    -0.01574  0.04438 -0.05099 -0.02789  0.00204  0.00299
    C6       X    -0.00709  0.02503 -0.01586 -0.01941  0.01957  0.04484
    C6       Y     0.00943  0.03231  0.03856 -0.02332 -0.03400 -0.01206
    C6       Z    -0.02976  0.03066 -0.01480 -0.04818 -0.04762 -0.04013
    C7       X     0.00071 -0.01228 -0.00923 -0.00999  0.00796  0.01555
    C7       Y     0.00253  0.02101  0.01594 -0.02000 -0.02922 -0.02061
    C7       Z     0.00366  0.01707 -0.03330 -0.01062  0.01177  0.01057
    N8       X     0.01358 -0.08466  0.02018  0.01011  0.00322  0.00311
    N8       Y    -0.01630 -0.00147 -0.03583  0.01175  0.03277  0.02900
    N8       Z     0.03642 -0.04945  0.04999 -0.01555 -0.05132 -0.05053
    H9       X    -0.00273 -0.03310 -0.01000  0.00657  0.03867  0.07037
    H9       Y     0.01902  0.02168  0.01252 -0.00226  0.00501  0.02644
    H9       Z    -0.03731  0.02455  0.01130 -0.06091 -0.07909 -0.06918
    H10      X    -0.00230  0.03218 -0.00987 -0.02236  0.02406  0.04758
    H10      Y    -0.00124  0.03988  0.07220 -0.04751 -0.08296 -0.06077
    H10      Z    -0.03356  0.03686  0.00207 -0.05916 -0.06688 -0.06023
    H11      X    -0.02361 -0.00484 -0.00608 -0.04321 -0.03632 -0.03938
    H11      Y     0.03155  0.05545 -0.05677  0.05386  0.09022  0.07059
    H11      Z    -0.00586  0.06579 -0.07321 -0.00845  0.03842  0.04268
    H12      X    -0.02004 -0.03817  0.01664 -0.03685 -0.04387 -0.05744
    H12      Y    -0.07247 -0.01470 -0.11093  0.04012  0.05807  0.03153
    H12      Z    -0.02564  0.00758 -0.05403 -0.01148  0.00934 -0.00637
    P13      X     0.02500  0.00519 -0.00346  0.00692 -0.01525 -0.01411
    P13      Y     0.02495 -0.03688 -0.01994  0.01226 -0.00805  0.04227
    P13      Z    -0.02022 -0.01559  0.01355  0.01131  0.00665  0.02964
    P14      X    -0.01026 -0.02546  0.02923  0.03675  0.01932 -0.02106
    P14      Y    -0.00355 -0.00049  0.01850  0.01591  0.02022 -0.01134
    P14      Z     0.04056  0.00186  0.01444  0.01765  0.02876 -0.03039
    C15      X     0.03530 -0.04250  0.01000 -0.10073  0.08729 -0.02806
    C15      Y     0.01175 -0.03817 -0.01919  0.01633 -0.01359  0.05556
    C15      Z     0.02464 -0.01047  0.01799  0.01263  0.03162 -0.01210
    C16      X     0.00069 -0.04410  0.02087 -0.06410  0.06204 -0.01286
    C16      Y     0.02699 -0.01464 -0.00786  0.04967 -0.00629  0.00949
    C16      Z     0.02641  0.01104  0.02797  0.05736  0.02144 -0.04208
    H17      X     0.00260  0.03695 -0.01040  0.01172  0.01229  0.00596
    H17      Y    -0.00458 -0.00124  0.03378 -0.05361 -0.01746  0.03609
    H17      Z    -0.02597 -0.03520 -0.01322  0.00420  0.00279  0.00850
    H18      X     0.00213  0.00794  0.01017 -0.04425 -0.00552  0.03677
    H18      Y     0.00481 -0.01269  0.04230 -0.01435 -0.01425  0.01146
    H18      Z    -0.02213 -0.04956 -0.03266  0.00625 -0.01190  0.01031
    C19      X     0.01479  0.00793  0.00274  0.00457 -0.01983 -0.01421
    C19      Y     0.01718 -0.01349 -0.01928  0.00586 -0.00937  0.00249
    C19      Z    -0.00826  0.01530  0.02594  0.01428 -0.01556 -0.00023
    C20      X     0.00235  0.00922  0.00722  0.01236 -0.01873  0.00029
    C20      Y     0.03729 -0.00491 -0.01968 -0.00157  0.00670  0.01510
    C20      Z    -0.04095  0.01500  0.04253  0.00427  0.01723  0.03814
    C21      X    -0.00361 -0.01562  0.01342  0.02450  0.00411 -0.01148
    C21      Y    -0.02970 -0.00716  0.00449  0.02274  0.02377 -0.00913
    C21      Z     0.04646  0.01237 -0.00998 -0.00011  0.00877 -0.01001
    C22      X    -0.01099 -0.01753  0.01444  0.01517  0.00314 -0.00452
    C22      Y    -0.01580  0.02115 -0.01232 -0.00859  0.00929  0.00544
    C22      Z     0.02938  0.00653 -0.00255  0.00578  0.00001 -0.00300
    H23      X     0.01574  0.02273  0.01888 -0.03744  0.01029 -0.04784
    H23      Y     0.01226 -0.02593 -0.01654 -0.00077  0.00222  0.03226
    H23      Z    -0.00073  0.03412  0.02309  0.01951 -0.02865 -0.04641
    H24      X     0.00230 -0.03357  0.03937  0.00801  0.03209 -0.01981
    H24      Y    -0.01850  0.03404 -0.03851 -0.02895 -0.02446  0.04014
    H24      Z     0.01823  0.01168 -0.00441  0.03281  0.00041 -0.01902
    H25      X     0.00541 -0.00704  0.03197  0.04894  0.01867 -0.03819
    H25      Y    -0.02703 -0.01418  0.01219  0.01847  0.02316  0.00510
    H25      Z     0.03430  0.01165 -0.03655 -0.01973 -0.00480  0.00043
    H26      X    -0.00442  0.04409  0.01896  0.02359 -0.02985 -0.02919
    H26      Y     0.03703  0.01780 -0.00762 -0.00904  0.01211  0.00928
    H26      Z    -0.04230 -0.00771  0.02940  0.01593  0.00803  0.04044
    C27      X     0.00460  0.00101 -0.00748 -0.01777 -0.01533  0.02291
    C27      Y    -0.01976  0.01179 -0.01184 -0.01057  0.00569  0.01118
    C27      Z     0.03530  0.00517 -0.01502 -0.01944 -0.01634  0.02256
    H28      X     0.01047  0.00763 -0.01559 -0.05130 -0.04262  0.06834
    H28      Y    -0.02609  0.00628  0.00363  0.02155  0.03070 -0.02689
    H28      Z     0.03849  0.00676 -0.02675 -0.03242 -0.02565  0.03415
    H29      X     0.01387  0.00808 -0.01621 -0.03166 -0.02538  0.03457
    H29      Y    -0.00950  0.02103 -0.03091 -0.05154 -0.02646  0.05967
    H29      Z     0.03189  0.00385 -0.02055 -0.03794 -0.03233  0.05124
    C30      X     0.00336 -0.00327 -0.00435  0.00889  0.00386 -0.01426
    C30      Y    -0.03220  0.00143 -0.01279  0.01188  0.01808 -0.01381
    C30      Z     0.03739  0.00842 -0.01103  0.00255  0.00382 -0.01084
    H31      X    -0.00202 -0.00737 -0.00297  0.03456  0.02255 -0.04809
    H31      Y    -0.03549  0.00570 -0.02888  0.00130  0.01405 -0.01486
    H31      Z     0.04332  0.00737  0.00131 -0.00451 -0.00431  0.01054
    H32      X     0.00508  0.00533 -0.01559 -0.00005  0.00495 -0.01727
    H32      Y    -0.03836 -0.00435 -0.01496  0.02334  0.02342 -0.02826
    H32      Z     0.03058  0.00949 -0.02629  0.00935  0.01268 -0.03495
    C33      X    -0.01308  0.00703  0.01116  0.00886 -0.01270  0.00006
    C33      Y     0.03537  0.00743 -0.01215 -0.01002  0.01217  0.00909
    C33      Z    -0.02578  0.03279  0.04846 -0.00541  0.02269  0.03435
    H34      X    -0.00802  0.00985 -0.00125  0.02449 -0.04489 -0.05483
    H34      Y     0.03436 -0.00432 -0.02128 -0.00175  0.00053  0.00002
    H34      Z    -0.02458  0.05375  0.06675 -0.02238  0.04797  0.05800
    H35      X    -0.02651  0.00719  0.01871  0.00007  0.00699  0.02214
    H35      Y     0.03853  0.02944  0.00912 -0.02982  0.04312  0.04344
    H35      Z    -0.02971  0.03687  0.05488 -0.01179  0.03463  0.04769
    C36      X    -0.00977  0.00399  0.01030  0.00398  0.00061  0.01896
    C36      Y     0.03159  0.01488 -0.02169  0.00856 -0.02337 -0.05823
    C36      Z    -0.00825  0.02359  0.02776  0.01428 -0.01534 -0.01286
    H37      X    -0.01690  0.00893  0.01152  0.01059 -0.01259 -0.00537
    H37      Y     0.03319  0.02761 -0.02509  0.01689 -0.04617 -0.11357
    H37      Z     0.01119  0.04182  0.01746  0.01895 -0.03878 -0.08556
    H38      X    -0.01845 -0.00400  0.02464 -0.01301  0.04023  0.09920
    H38      Y     0.03777  0.03038 -0.02245  0.00974 -0.03370 -0.09790
    H38      Z    -0.01463  0.00495  0.02616  0.01575 -0.00907  0.02403
    C39      X     0.02265  0.00089  0.00048  0.03407 -0.06496  0.01396
    C39      Y     0.00801 -0.00304 -0.00668 -0.05285  0.06302 -0.03457
    C39      Z    -0.00012  0.01157  0.05939 -0.01923 -0.01998  0.03840
    H40      X     0.03567  0.01045  0.02660  0.02043 -0.11149  0.00587
    H40      Y    -0.00134 -0.02685  0.00531 -0.07102  0.11609  0.05648
    H40      Z    -0.00038  0.00774  0.06626 -0.02559 -0.01494  0.05827
    H41      X     0.01511  0.00391 -0.00355  0.01405 -0.01990 -0.00702
    H41      Y     0.00500  0.01585 -0.00306 -0.08944  0.09944 -0.10536
    H41      Z     0.01390  0.03771  0.07668 -0.03273 -0.07226 -0.03377
    H42      X     0.02307 -0.01883 -0.02166  0.08770 -0.09873  0.06583
    H42      Y     0.01274  0.01109 -0.01287 -0.04623  0.03883 -0.08917
    H42      Z    -0.00777 -0.01084  0.06947 -0.02969  0.01864  0.12620
    C43      X     0.00387 -0.01516  0.00243  0.00457 -0.01004  0.02770
    C43      Y     0.05448  0.02404 -0.03388  0.02956 -0.01987 -0.04627
    C43      Z    -0.07174  0.07418  0.08782 -0.00730  0.01945  0.02360
    H44      X     0.02550 -0.01104 -0.02802  0.01615 -0.04040 -0.02966
    H44      Y     0.06322  0.02750 -0.03754  0.05923 -0.01507 -0.05101
    H44      Z    -0.08393  0.07260  0.11763  0.01889  0.06144  0.08435
    H45      X    -0.02109  0.00708  0.04411  0.00204  0.01640  0.06313
    H45      Y     0.05982  0.06963 -0.04870  0.00446 -0.07642 -0.15027
    H45      Z    -0.08398  0.09873  0.10685 -0.01548  0.01876  0.01509
    H46      X     0.00562 -0.06594 -0.00895 -0.01253  0.00611  0.08174
    H46      Y     0.05432  0.00502 -0.02787  0.05117  0.00820  0.00038
    H46      Z    -0.07082  0.09853  0.07617 -0.04291 -0.02342 -0.04455
    C47      X    -0.01778 -0.03066 -0.01655 -0.02023 -0.02385  0.03242
    C47      Y    -0.07367 -0.02718 -0.01590  0.01799  0.01385 -0.00693
    C47      Z     0.08170  0.01840 -0.02468 -0.05172 -0.01274  0.04258
    H48      X    -0.03431 -0.04961  0.01748  0.05916  0.03913  0.01995
    H48      Y    -0.06227 -0.04376  0.00724  0.05822  0.06136  0.02946
    H48      Z     0.10779  0.02321 -0.03937 -0.09775 -0.03612  0.08546
    H49      X     0.00028 -0.01168 -0.05073 -0.10184 -0.08796  0.04536
    H49      Y    -0.11354 -0.04168 -0.03372  0.01268  0.00027 -0.01389
    H49      Z     0.06368  0.02345 -0.07243 -0.13299 -0.08488  0.04873
    H50      X    -0.02850 -0.04269 -0.04195 -0.05926 -0.04774  0.07157
    H50      Y    -0.08547 -0.01408 -0.03519 -0.01472 -0.02645 -0.03916
    H50      Z     0.10596  0.01391  0.02271  0.02394  0.05816  0.04434
    C51      X    -0.03325 -0.00232 -0.01490  0.03399 -0.04802  0.01827
    C51      Y    -0.02664  0.05313 -0.03141  0.02302  0.04466 -0.04167
    C51      Z     0.01954  0.00552 -0.01627  0.00621 -0.04843  0.03080
    H52      X    -0.03074 -0.02679  0.01969  0.08209 -0.04690 -0.03718
    H52      Y    -0.03410  0.07267 -0.04728  0.03415  0.06030 -0.05816
    H52      Z     0.00969  0.01443 -0.00919  0.07008 -0.02228 -0.04867
    H53      X    -0.03649  0.01807 -0.04453 -0.00486 -0.05160  0.06382
    H53      Y    -0.03478  0.07378 -0.07233 -0.02899  0.01005  0.03831
    H53      Z     0.01047 -0.00091 -0.02993 -0.00830 -0.11315  0.08806
    H54      X    -0.04995  0.01348 -0.04404  0.03281 -0.08341  0.04655
    H54      Y    -0.02206  0.04180  0.00513  0.09164  0.09542 -0.14527
    H54      Z     0.03061  0.00017 -0.01859 -0.04578 -0.05555  0.08506
    H55      X    -0.02637 -0.06156  0.02281 -0.13653  0.07597  0.01907
    H55      Y     0.02482 -0.02045 -0.01111  0.04050 -0.00805  0.02073
    H55      Z     0.01894  0.02530  0.04436  0.05076  0.03998 -0.07208
    H56      X     0.00378 -0.04104  0.02106 -0.04864  0.05726 -0.01724
    H56      Y     0.05575  0.00152 -0.01013  0.10443 -0.01277 -0.02275
    H56      Z     0.01305  0.01914  0.03275  0.13680 -0.01630 -0.04017
    H57      X     0.05994 -0.06689  0.00742 -0.17893  0.14978 -0.03638
    H57      Y    -0.01453 -0.02889 -0.02556  0.04506 -0.06339  0.08776
    H57      Z     0.01245  0.00323  0.02021  0.05695 -0.00077 -0.01059
    H58      X     0.04108 -0.05517  0.01138 -0.13385  0.11611 -0.03140
    H58      Y     0.00614 -0.06759 -0.01263 -0.04230  0.03561  0.06033
    H58      Z     0.05887 -0.03085  0.01593 -0.06677  0.10376 -0.03435
  
  vibration #           19       20       21       22       23       24
                  -------- -------- -------- -------- -------- --------
  frequencies       216.54   223.52   236.52   245.82   248.14   251.15
  intensities         0.10     1.05     2.32     3.96     0.11     3.64
  reduc. mass         0.32     0.48     2.87     1.33     0.20     6.92
  force const         0.01     0.01     0.09     0.05     0.01     0.26
    Rh1      X    -0.00023 -0.00020 -0.03699  0.01657  0.00350 -0.03716
    Rh1      Y     0.00311 -0.01172  0.01429 -0.02456  0.00306 -0.01549
    Rh1      Z    -0.00335 -0.00565 -0.00021 -0.01170  0.00392 -0.02878
    O2       X    -0.00070  0.01547  0.01365  0.00805 -0.00811  0.02425
    O2       Y     0.00206  0.03184 -0.02666  0.03697 -0.02206  0.00628
    O2       Z    -0.00530  0.01228  0.01148 -0.00533 -0.00234  0.00750
    C3       X    -0.00197  0.01883  0.00905  0.00876 -0.00933  0.01772
    C3       Y    -0.00202 -0.00240  0.00283  0.01988 -0.01004 -0.00247
    C3       Z    -0.00275  0.00555  0.01804 -0.00548  0.00072  0.01696
    N4       X    -0.00053  0.01388  0.01833  0.00698 -0.01033  0.02597
    N4       Y     0.00030 -0.01885  0.02520 -0.02140  0.00803  0.00692
    N4       Z    -0.00009 -0.00393  0.03176 -0.01317  0.00316  0.02798
    C5       X     0.00331 -0.00215  0.03832 -0.01013 -0.00786  0.03653
    C5       Y     0.00247  0.01194 -0.00864  0.00823 -0.00854  0.00660
    C5       Z     0.00046  0.00359  0.02646 -0.00631 -0.00137  0.03153
    C6       X     0.00533 -0.02517  0.06798 -0.05164  0.00114  0.03834
    C6       Y     0.00281  0.00791 -0.01362  0.00162 -0.00784 -0.00876
    C6       Z    -0.00096  0.02828 -0.01556  0.03230 -0.01810  0.00640
    C7       X     0.00074 -0.00772  0.02780 -0.01098 -0.00091  0.01780
    C7       Y    -0.00013  0.01542 -0.02358  0.02032 -0.00702 -0.00703
    C7       Z     0.00040 -0.00364  0.02436 -0.01410  0.00512  0.02139
    N8       X    -0.00188 -0.00524  0.01201 -0.01118  0.00208 -0.00439
    N8       Y    -0.00238 -0.01721  0.02011 -0.01576  0.00965  0.00719
    N8       Z    -0.00074  0.02979 -0.03574  0.01908 -0.00675 -0.01872
    H9       X     0.00718 -0.05023  0.09258 -0.08822  0.01119  0.02208
    H9       Y     0.00445 -0.01697  0.02574 -0.03955  0.00676  0.00446
    H9       Z    -0.00191  0.04473 -0.04577  0.06081 -0.02907 -0.01041
    H10      X     0.00669 -0.02541  0.07608 -0.06189  0.00482  0.05284
    H10      Y     0.00092  0.03900 -0.06497  0.05409 -0.02531 -0.02913
    H10      Z    -0.00154  0.04130 -0.03530  0.05217 -0.02447  0.00152
    H11      X    -0.00139  0.02120  0.01080  0.01153 -0.01180  0.02414
[...]
    H54      Z    -0.00381  0.01318 -0.07955 -0.00429 -0.08309  0.01476
    H55      X    -0.00218  0.00061  0.03745  0.00166  0.06955 -0.01507
    H55      Y     0.01513 -0.00473 -0.27271 -0.01262 -0.50078  0.10788
    H55      Z     0.00340 -0.00111 -0.06246 -0.00269 -0.11455  0.02477
    H56      X    -0.01232  0.00537  0.25607  0.01387  0.50638 -0.11722
    H56      Y     0.00179 -0.00073 -0.03660 -0.00217 -0.07102  0.01631
    H56      Z     0.00090 -0.00045 -0.02175 -0.00164 -0.04462  0.00979
    H57      X    -0.00201  0.00247  0.03098 -0.00032  0.09742 -0.00280
    H57      Y    -0.00077  0.00020  0.00545  0.00001  0.01888 -0.00023
    H57      Z    -0.00292  0.00411  0.05110 -0.00071  0.16386 -0.00437
    H58      X     0.00126  0.00554  0.10492  0.00273  0.24928 -0.03263
    H58      Y    -0.00074 -0.00163 -0.02899 -0.00078 -0.06821  0.00899
    H58      Z     0.00002 -0.00120 -0.02353 -0.00057 -0.05501  0.00764
  
  vibration #          163      164      165      166      167      168
                  -------- -------- -------- -------- -------- --------
  frequencies      3136.62  3148.70  3150.94  3173.52  3286.49  3588.33
  intensities         6.86     4.52     5.50     1.51     3.91    87.48
  reduc. mass         0.62     0.66     0.67     0.61     0.66     0.94
  force const         3.61     3.87     3.91     3.65     4.20     7.13
    Rh1      X    -0.00000 -0.00001  0.00000  0.00003  0.00003  0.00000
    Rh1      Y    -0.00000 -0.00000  0.00000 -0.00005  0.00001 -0.00001
    Rh1      Z    -0.00000 -0.00000 -0.00000  0.00002 -0.00002  0.00001
    O2       X     0.00000  0.00003 -0.00031 -0.00002  0.00000 -0.00138
    O2       Y     0.00000  0.00000 -0.00032  0.00007  0.00000 -0.00009
    O2       Z    -0.00000  0.00002  0.00004 -0.00009 -0.00004 -0.00036
    C3       X    -0.00001 -0.00006 -0.00013  0.00014  0.00002 -0.00082
    C3       Y    -0.00000 -0.00001 -0.00000 -0.00016  0.00017 -0.00001
    C3       Z     0.00009 -0.00003 -0.00062  0.00071 -0.00018  0.00246
    N4       X     0.00002  0.00002 -0.00002  0.00009 -0.00009  0.06360
    N4       Y    -0.00001  0.00001  0.00002  0.00024  0.00016 -0.00108
    N4       Z    -0.00001 -0.00003  0.00002 -0.00006 -0.00042  0.03201
    C5       X     0.00002  0.00003  0.00001 -0.00175 -0.00066 -0.00039
    C5       Y     0.00001 -0.00003 -0.00000  0.00303  0.00093  0.00040
    C5       Z     0.00000 -0.00005 -0.00001 -0.00155  0.00020 -0.00064
    C6       X    -0.00004  0.00002  0.00001  0.00642 -0.02430 -0.00005
    C6       Y    -0.00001  0.00026  0.00000 -0.06523 -0.00298  0.00023
    C6       Z    -0.00002 -0.00039 -0.00001 -0.01541  0.08913 -0.00037
    C7       X    -0.00013  0.00008 -0.00000 -0.00029  0.00019 -0.00004
    C7       Y    -0.00004 -0.00014 -0.00000  0.00023 -0.00019 -0.00012
    C7       Z     0.00003  0.00034  0.00000  0.00026  0.00005  0.00004
    N8       X    -0.00002  0.00007  0.00000  0.00015  0.00004  0.00002
    N8       Y    -0.00021 -0.00008 -0.00000 -0.00013 -0.00001  0.00006
    N8       Z    -0.00005  0.00018  0.00000 -0.00012 -0.00006  0.00006
    H9       X     0.00003  0.00047  0.00000 -0.17015  0.08735  0.00037
    H9       Y     0.00023 -0.00113  0.00004  0.56182 -0.29601 -0.00037
    H9       Z     0.00025 -0.00153  0.00002  0.61244 -0.31468  0.00032
    H10      X     0.00010 -0.00034 -0.00008  0.11580  0.20493 -0.00006
    H10      Y     0.00013 -0.00143 -0.00006  0.17027  0.31657  0.00034
    H10      Z    -0.00022  0.00338  0.00015 -0.41924 -0.74423  0.00009
    H11      X    -0.00001  0.00004  0.00009 -0.00069 -0.00029 -0.84864
    H11      Y     0.00008  0.00002  0.00016 -0.00097 -0.00020  0.00915
    H11      Z     0.00007  0.00002 -0.00002  0.00127 -0.00078 -0.44862
    H12      X    -0.00009  0.00009  0.00065 -0.00075  0.00016  0.00127
    H12      Y     0.00008 -0.00004 -0.00051  0.00042 -0.00017  0.00049
    H12      Z    -0.00092  0.00031  0.00676 -0.00592  0.00071 -0.01066
    P13      X    -0.00001  0.00007 -0.00001  0.00001  0.00001  0.00002
    P13      Y     0.00003  0.00003 -0.00001 -0.00000 -0.00001  0.00000
    P13      Z     0.00000 -0.00004 -0.00001 -0.00003 -0.00004  0.00001
    P14      X    -0.00011 -0.00000  0.00006  0.00001 -0.00002 -0.00002
    P14      Y     0.00005 -0.00000 -0.00001  0.00003 -0.00000  0.00002
    P14      Z     0.00003 -0.00001 -0.00007 -0.00004  0.00003  0.00001
    C15      X    -0.00237  0.00010 -0.00002  0.00003 -0.00000 -0.00002
    C15      Y     0.00037 -0.00001  0.00002 -0.00002 -0.00002  0.00001
    C15      Z    -0.00041 -0.00005 -0.00001 -0.00000  0.00001 -0.00002
    C16      X     0.00093  0.00002 -0.00023 -0.00003  0.00001  0.00000
    C16      Y    -0.00243  0.00000  0.00013  0.00008  0.00002 -0.00001
    C16      Z    -0.00060  0.00000  0.00003  0.00000 -0.00001 -0.00000
    H17      X     0.00024  0.00015  0.00028 -0.00047 -0.00010 -0.00010
    H17      Y    -0.00008 -0.00003  0.00009 -0.00027 -0.00012  0.00011
    H17      Z    -0.00002  0.00009 -0.00017 -0.00001 -0.00006  0.00040
    H18      X     0.00013 -0.00014 -0.00004 -0.00398  0.00077  0.00027
    H18      Y     0.00017  0.00006  0.00004  0.00807  0.00077  0.00027
    H18      Z    -0.00000  0.00006  0.00000 -0.00034 -0.00138  0.00040
    C19      X    -0.00001  0.00005 -0.00000 -0.00001 -0.00002  0.00001
    C19      Y    -0.00003 -0.00019 -0.00001 -0.00005 -0.00000 -0.00000
    C19      Z    -0.00001 -0.00005 -0.00001 -0.00001  0.00003 -0.00001
    C20      X     0.00001 -0.00003  0.00001  0.00006  0.00009 -0.00002
    C20      Y     0.00001 -0.00280 -0.00001 -0.00001 -0.00006 -0.00002
    C20      Z     0.00002 -0.00175 -0.00001 -0.00005 -0.00009 -0.00000
    C21      X    -0.00012  0.00000 -0.00356  0.00000 -0.00000  0.00001
    C21      Y    -0.00012  0.00000 -0.00364  0.00005 -0.00001  0.00001
    C21      Z     0.00000  0.00000 -0.00330  0.00005 -0.00001  0.00001
    C22      X    -0.00234  0.00000 -0.00007 -0.00004  0.00003  0.00004
    C22      Y    -0.00298  0.00001 -0.00007 -0.00002  0.00002  0.00002
    C22      Z    -0.00272  0.00000 -0.00012 -0.00004  0.00002  0.00003
    H23      X     0.00007 -0.00022 -0.00001 -0.00006 -0.00003  0.00000
    H23      Y     0.00010  0.00164  0.00019  0.00051 -0.00005 -0.00003
    H23      Z     0.00015  0.00111  0.00011  0.00032 -0.00008  0.00003
    H24      X     0.02994 -0.00000  0.00128  0.00069 -0.00017 -0.00041
    H24      Y     0.02864 -0.00003  0.00108  0.00057 -0.00016 -0.00008
    H24      Z     0.03091  0.00003  0.00112  0.00064 -0.00016 -0.00023
    H25      X     0.00108 -0.00001  0.03495 -0.00000  0.00001 -0.00007
    H25      Y     0.00102 -0.00001  0.04473 -0.00001  0.00002 -0.00012
    H25      Z     0.00072 -0.00002  0.03967 -0.00033  0.00006 -0.00010
    H26      X     0.00005 -0.00242 -0.00003 -0.00044 -0.00068  0.00004
    H26      Y    -0.00015  0.02763  0.00016 -0.00028 -0.00012  0.00008
    H26      Z    -0.00025  0.02160  0.00015  0.00007  0.00029 -0.00012
    C27      X    -0.00137 -0.00001 -0.00013 -0.00000 -0.00001 -0.00001
    C27      Y    -0.00029  0.00000 -0.00005 -0.00002 -0.00000  0.00001
    C27      Z    -0.00174 -0.00000 -0.00021  0.00000  0.00000 -0.00001
    H28      X     0.00868  0.00002  0.00062  0.00012  0.00001 -0.00004
    H28      Y     0.01311  0.00004  0.00238  0.00015  0.00001 -0.00010
    H28      Z     0.00994  0.00003  0.00227  0.00014  0.00001 -0.00005
    H29      X     0.00973  0.00004  0.00138 -0.00021  0.00002  0.00011
    H29      Y    -0.00581 -0.00003 -0.00092  0.00019  0.00002 -0.00007
    H29      Z     0.00623  0.00003  0.00096 -0.00018 -0.00002  0.00007
    C30      X    -0.00027 -0.00000 -0.00123 -0.00000 -0.00000  0.00001
    C30      Y    -0.00047  0.00000 -0.00183 -0.00001  0.00000  0.00002
    C30      Z    -0.00024 -0.00001 -0.00028  0.00002  0.00000  0.00002
    H31      X     0.00198  0.00003  0.00948 -0.00006 -0.00000 -0.00013
    H31      Y     0.00354  0.00005  0.00864 -0.00006 -0.00001 -0.00006
    H31      Z     0.00440  0.00005  0.01329 -0.00007 -0.00001 -0.00026
    H32      X     0.00192 -0.00004  0.00822  0.00014  0.00001 -0.00008
    H32      Y     0.00264 -0.00006  0.01216  0.00023  0.00001 -0.00013
    H32      Z    -0.00191  0.00004 -0.00815 -0.00018 -0.00001  0.00002
    C33      X     0.00000 -0.00011 -0.00000 -0.00000 -0.00001  0.00001
    C33      Y     0.00001 -0.00070 -0.00000  0.00001  0.00001 -0.00001
    C33      Z    -0.00002 -0.00129  0.00000  0.00002  0.00002 -0.00001
    H34      X     0.00001 -0.00067 -0.00000  0.00004  0.00007 -0.00001
    H34      Y    -0.00004  0.01237  0.00004 -0.00020 -0.00011  0.00003
    H34      Z    -0.00001  0.00591  0.00002 -0.00012 -0.00006  0.00003
    H35      X    -0.00008 -0.00282  0.00003 -0.00001 -0.00001 -0.00001
    H35      Y    -0.00005 -0.00114 -0.00000 -0.00006 -0.00008  0.00005
    H35      Z     0.00025  0.00694 -0.00004  0.00015  0.00017 -0.00008
    C36      X    -0.00001  0.00001  0.00000  0.00003  0.00003 -0.00000
    C36      Y    -0.00000 -0.00034 -0.00001 -0.00001 -0.00001  0.00000
    C36      Z    -0.00002 -0.00012 -0.00000  0.00000 -0.00001  0.00001
    H37      X     0.00016 -0.00200 -0.00001 -0.00029 -0.00021 -0.00004
    H37      Y    -0.00019  0.00189  0.00000  0.00022  0.00011  0.00006
    H37      Z     0.00009 -0.00089  0.00000 -0.00005  0.00002 -0.00005
    H38      X     0.00001  0.00097  0.00001 -0.00002 -0.00003  0.00001
    H38      Y     0.00021  0.00303  0.00008 -0.00004 -0.00003 -0.00004
    H38      Z     0.00014  0.00221  0.00007  0.00002  0.00003 -0.00003
    C39      X    -0.00001  0.00004  0.00005 -0.00000  0.00000  0.00000
    C39      Y    -0.00002 -0.00008 -0.00009  0.00002  0.00001  0.00000
    C39      Z     0.00001 -0.00004  0.00017 -0.00002 -0.00002  0.00001
    H40      X     0.00002  0.00005  0.00025 -0.00005 -0.00006  0.00005
    H40      Y     0.00003  0.00000  0.00029 -0.00007 -0.00007  0.00003
    H40      Z    -0.00023 -0.00002 -0.00181  0.00031  0.00021 -0.00010
    H41      X     0.00012 -0.00070 -0.00084  0.00008  0.00002 -0.00007
    H41      Y    -0.00006  0.00038  0.00062 -0.00009 -0.00003  0.00003
    H41      Z     0.00003 -0.00023 -0.00033  0.00003  0.00000 -0.00003
    H42      X    -0.00001  0.00006  0.00000  0.00000 -0.00000  0.00001
    H42      Y     0.00020  0.00077  0.00013 -0.00002  0.00004 -0.00005
    H42      Z     0.00014  0.00049  0.00017 -0.00005  0.00002 -0.00003
    C43      X     0.00023  0.03311  0.00006  0.00006 -0.00004 -0.00001
    C43      Y    -0.00053 -0.07382 -0.00012 -0.00036 -0.00017  0.00001
    C43      Z     0.00025  0.03499  0.00002 -0.00019 -0.00004  0.00001
    H44      X    -0.00341 -0.48342 -0.00070 -0.00012  0.00053 -0.00006
    H44      Y     0.00399  0.56340  0.00081 -0.00008 -0.00097  0.00004
    H44      Z    -0.00300 -0.41965 -0.00062 -0.00034 -0.00011  0.00000
    H45      X     0.00085  0.11182  0.00009 -0.00054 -0.00041  0.00007
    H45      Y     0.00027  0.03617  0.00001 -0.00109 -0.00128  0.00002
    H45      Z    -0.00146 -0.19466 -0.00013  0.00054  0.00029 -0.00015
    H46      X    -0.00015 -0.01927 -0.00004 -0.00062 -0.00063  0.00000
    H46      Y     0.00211  0.28247  0.00066  0.00628  0.00572 -0.00013
    H46      Z     0.00147  0.19720  0.00044  0.00751  0.00895 -0.00001
    C47      X     0.00001  0.00010 -0.06278 -0.00004 -0.00000 -0.00000
    C47      Y    -0.00007  0.00008 -0.04555  0.00002 -0.00002  0.00001
    C47      Z     0.00007  0.00005 -0.04070  0.00000 -0.00000  0.00000
    H48      X    -0.00067 -0.00024  0.17503  0.00031 -0.00006  0.00002
    H48      Y     0.00053  0.00023 -0.16405 -0.00023  0.00004 -0.00004
    H48      Z    -0.00062 -0.00027  0.18723  0.00029 -0.00006 -0.00002
    H49      X     0.00058 -0.00031  0.13913  0.00022  0.00002 -0.00017
    H49      Y     0.00043 -0.00030  0.13950  0.00018  0.00003 -0.00021
    H49      Z    -0.00056  0.00036 -0.16880 -0.00021 -0.00003  0.00004
    H50      X     0.00006 -0.00066  0.44010 -0.00012  0.00012  0.00036
    H50      Y     0.00013 -0.00086  0.57015 -0.00013  0.00011  0.00022
    H50      Z     0.00019 -0.00070  0.46497 -0.00008  0.00009 -0.00011
    C51      X    -0.03345  0.00017 -0.00009  0.00000 -0.00000 -0.00002
    C51      Y    -0.07955  0.00058  0.00007  0.00004  0.00001 -0.00000
    C51      Z     0.01834 -0.00022 -0.00011 -0.00005 -0.00001  0.00000
    H52      X     0.36563 -0.00286 -0.00035 -0.00024 -0.00006 -0.00001
    H52      Y     0.63921 -0.00487 -0.00052 -0.00041 -0.00009  0.00006
    H52      Z    -0.39034  0.00289  0.00033  0.00029  0.00003 -0.00005
    H53      X    -0.18511  0.00168  0.00101  0.00006  0.00001  0.00009
    H53      Y     0.13599 -0.00135 -0.00087 -0.00006 -0.00003 -0.00011
    H53      Z    -0.07382  0.00071  0.00038  0.00009  0.00002  0.00002
    H54      X     0.21864 -0.00090  0.00054  0.00010  0.00005  0.00003
    H54      Y     0.17531 -0.00066  0.00055  0.00009  0.00004 -0.00001
    H54      Z     0.25044 -0.00108  0.00069  0.00014  0.00003 -0.00005
    H55      X    -0.00406  0.00003  0.00020  0.00019  0.00006 -0.00003
    H55      Y     0.02866  0.00011 -0.00070 -0.00064 -0.00001 -0.00007
    H55      Z     0.00671  0.00000  0.00021  0.00005  0.00011 -0.00006
    H56      X    -0.00819 -0.00044  0.00230  0.00031 -0.00006  0.00001
    H56      Y     0.00146 -0.00000 -0.00039  0.00000  0.00001  0.00000
    H56      Z     0.00079  0.00012  0.00021  0.00003  0.00003  0.00001
    H57      X     0.00673  0.00020  0.00006  0.00011  0.00014 -0.00000
    H57      Y     0.00107  0.00016 -0.00001  0.00006  0.00011 -0.00011
    H57      Z     0.01063  0.00040  0.00026  0.00025  0.00021 -0.00004
    H58      X     0.02211 -0.00085  0.00036 -0.00051 -0.00009  0.00003
    H58      Y    -0.00617  0.00074 -0.00003  0.00018  0.00007  0.00001
    H58      Z    -0.00545  0.00016 -0.00014  0.00008 -0.00003  0.00001
  
  Number of imaginary frequencies:   1
   
  Writing vibrational animation data to 8RR-Me-BPEpro-SConformation1fromJCTCSI_isomer7.vib
  Writing vibrational spectrum data to 8RR-Me-BPEpro-SConformation1fromJCTCSI_isomer7_vib.spm
  rotational symmetry number:  1

  rotational temperatures (K):      0.012014      0.008094      0.007032
   
    1 vibrational frequencies below  10.0 cm-1 not included in zero-point
  energy or thermochemical analysis.  Set freqcut to change the frequency
  cutoff value.

  vibrational temperatures:
       mode:      2        3        4        5        6        7
  temp. (K):    34.76    62.02    67.40    94.12   102.96   116.74
   
       mode:      8        9       10       11       12       13
  temp. (K):   125.46   158.87   165.42   181.62   195.23   203.15
   
       mode:     14       15       16       17       18       19
  temp. (K):   218.06   244.43   277.38   298.40   307.14   311.56
   
       mode:     20       21       22       23       24       25
  temp. (K):   321.60   340.31   353.68   357.01   361.35   371.02
   
       mode:     26       27       28       29       30       31
  temp. (K):   375.96   381.63   398.36   408.29   414.59   485.78
   
       mode:     32       33       34       35       36       37
  temp. (K):   488.91   518.99   545.19   559.54   581.68   600.97
   
       mode:     38       39       40       41       42       43
  temp. (K):   611.61   620.43   655.75   671.17   680.22   695.47
   
       mode:     44       45       46       47       48       49
  temp. (K):   775.81   779.08   819.57   830.77   853.39   860.59
   
       mode:     50       51       52       53       54       55
  temp. (K):   864.60   892.80   914.74   942.64   985.14   989.42
   
       mode:     56       57       58       59       60       61
  temp. (K):  1008.42  1068.91  1173.62  1201.79  1206.33  1211.85
   
       mode:     62       63       64       65       66       67
  temp. (K):  1234.99  1236.26  1291.35  1295.03  1343.61  1351.98
   
       mode:     68       69       70       71       72       73
  temp. (K):  1355.85  1363.94  1366.79  1441.27  1442.98  1447.54
   
       mode:     74       75       76       77       78       79
  temp. (K):  1455.01  1460.04  1460.77  1479.63  1487.09  1501.80
   
       mode:     80       81       82       83       84       85
  temp. (K):  1547.26  1562.05  1568.44  1576.69  1581.20  1586.28
   
       mode:     86       87       88       89       90       91
  temp. (K):  1621.17  1625.26  1643.08  1645.05  1688.92  1709.91
   
       mode:     92       93       94       95       96       97
  temp. (K):  1716.65  1733.29  1763.74  1769.84  1825.52  1843.47
   
       mode:     98       99      100      101      102      103
  temp. (K):  1853.57  1864.81  1871.05  1873.42  1894.23  1896.62
   
       mode:    104      105      106      107      108      109
  temp. (K):  1904.64  1905.68  1909.00  1961.67  1963.90  1967.63
   
       mode:    110      111      112      113      114      115
  temp. (K):  1967.86  1974.83  2012.23  2052.33  2058.40  2060.38
   
       mode:    116      117      118      119      120      121
  temp. (K):  2063.94  2109.32  2123.60  2144.95  2159.74  2160.14
   
       mode:    122      123      124      125      126      127
  temp. (K):  2168.16  2169.86  2170.19  2171.50  2172.69  2176.38
   
       mode:    128      129      130      131      132      133
  temp. (K):  2179.84  2179.97  2183.56  2185.36  2208.95  2425.20
   
       mode:    134      135      136      137      138      139
  temp. (K):  2762.94  3016.95  3334.27  4349.28  4361.15  4366.72
   
       mode:    140      141      142      143      144      145
  temp. (K):  4367.71  4374.31  4379.81  4382.25  4383.92  4390.24
   
       mode:    146      147      148      149      150      151
  temp. (K):  4392.83  4394.34  4395.27  4397.14  4411.41  4453.80
   
       mode:    152      153      154      155      156      157
  temp. (K):  4457.32  4461.43  4463.89  4466.25  4479.40  4481.49
   
       mode:    158      159      160      161      162      163
  temp. (K):  4482.05  4485.00  4486.29  4488.09  4489.96  4512.90
   
       mode:    164      165      166      167      168
  temp. (K):  4530.27  4533.49  4565.98  4728.51  5162.80
   
   
  Thermodynamic properties calculated assuming an ideal gas

  In the table below, the units for temperature
  are kelvins, the units for U, H, and G are
  kJ/mol and the units for Cv and S are J/(mol K)

  The zero point energy (ZPE):   1304.135 kJ/mol
  is not included in U, H, or G in the table below
  
 
  =============================================================================
  Thermodynamic properties for P =     1.00 atm, calculated at   1 temperatures


  T =   298.15 K, P =     1.00 atm
   
                  U         Cv          S          H          G        ln(Q)
              =========  =========  =========  =========  =========  =========
  trans.          3.718     12.472    185.189      6.197    -49.017   19.77309
  rot.            3.718     12.472    147.304      3.718    -40.200   16.21654
  vib.           66.922    435.606    424.617     66.922    -59.678   24.07366
  elec.           0.000      0.000      0.000      0.000      0.000    0.00000
  ----------------------------------------------------------------------------
  total          74.359    460.549    757.110     76.838   -148.894   60.06329
   
   Total internal energy, Utot(SCFE + ZPE + U):   -1682.687608 hartrees
              Total enthalpy, Htot (Utot + pV):   -1682.686664 hartrees
    Total Gibbs free energy, Gtot (Htot - T*S):   -1682.772641 hartrees
   
  Peak memory usage:   1417 Mb
  
  end of program freq
   
 Time(freq)  user:        1.4  user+sys:        1.4  wallclock:        7.4

 Total cpu seconds     user:   16481.902   user+sys:   16481.902
  
 Total elapsed time:    6708 seconds

Job 8RR-Me-BPEpro-SConformation1fromJCTCSI_isomer7 completed on seskscpn228.prim.scp at Wed Oct 18 12:12:41 2023
