Job 9RR-Me-BPEpro-SConformation2fromJCTCSI_isomer8 started on seskscpn146.prim.scp at Wed Oct 18 10:21:03 2023
jobid: seskscpn324-0-652fb174

  +--------------------------------------------------------------------+
  |  Jaguar version 10.6, release  12                                  |
  |                                                                    |
  |  Copyright Schrodinger, Inc.                                       |
  |  All Rights Reserved.                                              |
  |                                                                    |
  |  The following have contributed to Jaguar (listed alphabetically): |
  |  Mike Beachy, Art Bochevarov, Dale Braden, Yixiang Cao,            |
  |  Alan Chien, Chris Cortis, Rich Friesner, Bill Goddard,            |
  |  Hod Greeley, Tom Hughes, Leif Jacobson, Jean-Marc Langlois,       |
  |  Daniel Levine, Daniel Mainz, Rob Murphy, Dean Philipp,            |
  |  Tom Pollard, Murco Ringnalda, Mark Watson, Haoyu Yu.              |
  |                                                                    |
  |  Use of this program should be acknowledged in publications as:    |
  |                                                                    |
  |  Jaguar, version 10.6, Schrodinger, Inc., New York, NY, 2019.      |
  |                                                                    |
  |  A. D. Bochevarov, E. Harder, T. F. Hughes, J. R. Greenwood,       |
  |  D. A. Braden, D. M. Philipp, D. Rinaldo, M. D. Halls,             |
  |  J. Zhang, R. A. Friesner, "Jaguar: A High-Performance Quantum     |
  |  Chemistry Software Program with Strengths in Life and Materials   |
  |  Sciences", Int. J. Quantum Chem., 2013, 113(18), 2110-2142.       |
  +--------------------------------------------------------------------+
  
  start of program pre
  
  Job name: 9RR-Me-BPEpro-SConformation2fromJCTCSI_isomer8
  Executables used: /opt/scp/software/schrodinger/2019-4/jaguar-v10.6/bin/Linux-x86_64
  Temporary files : /scratch/kzdq760/9RR-Me-BPEpro-SConformation2fromJCTCSI_isomer8#seskscpn324-0-652fb174
  Maestro file (input):  9RR-Me-BPEpro-SConformation2fromJCTCSI_isomer8.mae
  Maestro file (output): 9RR-Me-BPEpro-SConformation2fromJCTCSI_isomer8.01.mae
  
 Contents of input file: &gen section only
 ----------------Contents start----------------
&gen
isymm=0
basis=LACVP**
gdftgrad=-13
gdftmed=-13
icanorb=1
molchg=1
gdftfine=-13
dftname=B3LYP
eunit=2
ifreq=1
ncanorb=522
iacc=1
&
 -----------------Contents end-----------------
 
  basis set:             lacvp**                         
  net molecular charge:    1
  multiplicity:            1
  
  keygrid settings 
    wispc.....   7.500E-01
    ldens.....   0
    denspc....   7.500E-01
  
   grid     daf set  nls  grid set  Q type
  ------    -------  ---  --------  ------
  coarse       1      1       1        1
  medium       2      2       2        1
  fine         3      2       3        0
  ultrafine    4      2       4        1
  charge       0      1       0        1
  gradient     5      2       4        1
  density      0      1       0        0
  DFT-fine     0      1     -13        0
  DFT-med.     0      1     -13        0
  DFT-grad     0      1     -13        0
  DFT-der2     0      1      -8        0
  DFT-cphf     0      1      -9        0
  LMP2-enrg    4      2       4        1
  LMP2-grad    5      2       2        1
  DFT-cphf2    0      1     -15        0
  PBF-dens     0      1       0        0
  plotting     0      1       0        0
  Rel-grad     0      1     -17        0
  
  idftgrdm  100
  ndftgrdm   50    0    0
  idftgrdf  111
  ndftgrdf   85    0    0
  idftgrdg  111
  ndftgrdg   80    3    0
  idftgrdu  433
  ndftgrdu  105    0    0
  idftgrdd  433
  ndftgrdd  105    0    0
  idftgrdc  433
  ndftgrdc   26    0    0
  idftgrdp  433
  ndftgrdp   18    0    0
  
  Using up to   3 threads per process
  
  This run will use ECP on 1 atom
  number of basis functions....          522
  
 Input geometry:
                                   angstroms
  atom               x                 y                 z
  Rh1           0.0000000000      0.0000000000      0.0000000000 
  O2            0.0000000000      0.0000000000      2.2260300000 
  C3            1.1231500000      0.0000000000      2.7618400000 
  N4            2.2640100000      0.0816200000      2.0631400000 
  C5            2.2470400000      0.3000100000      0.6360100000 
  C6            1.7230500000      1.5327900000      0.1611700000 
  C7            3.1689100000     -0.5044000000     -0.0949300000 
  N8            3.9486800000     -1.1756800000     -0.6428800000 
  H9            1.5807000000      2.3229700000      0.8922500000 
  H10           2.0063200000      1.8659900000     -0.8301600000 
  H11           3.1526300000      0.0518500000      2.5509000000 
  H12           1.2276000000     -0.0712900000      3.8504400000 
  P13          -0.5485100000     -0.0233600000     -2.2354700000 
  P14          -0.3861700000     -2.3743800000     -0.0284000000 
  C15          -1.5018100000     -1.6064500000     -2.4792100000 
  C16          -0.7733000000     -2.7816800000     -1.8087500000 
  H17          -1.5513900000      0.1583700000     -0.0298600000 
  H18           0.0397500000      1.6237400000     -0.0600200000 
  C19          -1.6114500000      1.3938600000     -2.8434400000 
  C20           0.6651000000      0.0418400000     -3.6916100000 
  C21          -1.8205400000     -3.0394100000      1.0045800000 
  C22           0.8698900000     -3.6360500000      0.5925900000 
  H23          -1.2099400000      2.2633700000     -2.3066400000 
  H24           1.4493800000     -3.0865400000      1.3459600000 
  H25          -2.4047100000     -3.6583200000      0.3097400000 
  H26           0.3674100000     -0.8215900000     -4.3019000000 
  C27           0.0165300000     -4.6997000000      1.3184700000 
  H28          -0.3802200000     -5.4139100000      0.5846400000 
  H29           0.6348600000     -5.2731500000      2.0176400000 
  C30          -1.1377600000     -3.9794800000      2.0249900000 
  H31          -0.7523300000     -3.3859200000      2.8649100000 
  H32          -1.8685800000     -4.6808300000      2.4411500000 
  C33           0.2730400000      1.3296800000     -4.4551700000 
  H34           0.7986600000      2.1875800000     -4.0146500000 
  H35           0.5995800000      1.2607800000     -5.4981000000 
  C36          -1.2428100000      1.5340300000     -4.3346700000 
  H37          -1.5543900000      2.5123700000     -4.7154100000 
  H38          -1.7774800000      0.7780100000     -4.9251000000 
  C39          -3.1082700000      1.2863000000     -2.5450100000 
  H40          -3.3031600000      1.1687000000     -1.4742000000 
  H41          -3.6149300000      2.2002400000     -2.8713300000 
  H42          -3.5705100000      0.4488200000     -3.0773200000 
  C43           2.1596300000     -0.0697200000     -3.3945700000 
  H44           2.4200900000     -0.9876100000     -2.8645900000 
  H45           2.7195800000     -0.0605400000     -4.3357500000 
  H46           2.5210100000      0.7747100000     -2.7997100000 
  C47          -2.7396700000     -1.9941900000      1.6427800000 
  H48          -3.2670100000     -1.3980500000      0.8924300000 
  H49          -3.4963300000     -2.4954900000      2.2562400000 
  H50          -2.1785300000     -1.3087900000      2.2833700000 
  C51           1.8402300000     -4.2003400000     -0.4506600000 
  H52           2.4484400000     -3.4204400000     -0.9166000000 
  H53           2.5286700000     -4.9001100000      0.0351400000 
  H54           1.3144800000     -4.7572000000     -1.2331800000 
  H55           0.1780300000     -2.9789000000     -2.3146600000 
  H56          -1.3695800000     -3.6980400000     -1.8744700000 
  H57          -2.4903100000     -1.4599300000     -2.0323800000 
  H58          -1.6486600000     -1.7923500000     -3.5487600000 
   
  principal moments of inertia:
        amu*angstrom^2:     2054.21841     3034.36284     3396.16710
                g*cm^2: 3.41110949E-37 5.03867741E-37 5.63946744E-37
   
  rotational constants:
               cm^(-1):      0.00820635      0.00555557      0.00496372
                   GHz:      0.24602010      0.16655194      0.14880864
   
  Molecular weight:     459.12 amu
   
  Stoichiometry: RhC18P2N2H34O
  Molecular Point Group: C1      
  Point Group used: C1 (symmetry turned off)
  
  nuclear repulsion energy.......    3029.640276034 hartrees
  
  Detected an organometallic with only one TM atom. 
  
  Oxidation state on metal       1 is     3
  Formal multiplet on metal      1 is     1
  Formal charge on ligand        4 is    -1
  Formal multiplet on ligand     4 is     1
  Formal charge on ligand        5 is    -1
  Formal multiplet on ligand     5 is     1
  
 
  Will use High-Quality Initial guess for organometallics
       including d-d repulsion (iguess=30)
 
 Non-default options chosen:
   SCF calculation type: DFT(b3lyp)                  
   DFT=Becke_3_Parameter/HF+Slater+Becke88+VWN+LYP (B3LYP)
   Vibrational frequencies and related properties will be computed
      from analytic second derivatives
   IR intensities will be computed
   Thermochemical properties will be computed
   Thermochemical data will be printed in Joules
   Molecular symmetry not used
   Highest accuracy cutoffs used in SCF
  
 Temporary integer options set:
     21= -1  73=  2
  
   Fixing number of canonical orbitals to remain constant.
   Number of canonical orbitals to use:   522
  
  Peak memory usage:   1275 Mb
  
  end of program pre
   
 Time(pre)  user:        1.8  user+sys:        1.8  wallclock:        1.4
  
  start of program onee
  
  smallest eigenvalue of S:    1.093E-03
  Set cut 20/10 to   1.092428595639610E-003
  number of canonical orbitals.....          522
  Peak memory usage:   1315 Mb
  
  end of program onee
   
 Time(onee)  user:        2.1  user+sys:        2.1  wallclock:        0.8
  
  start of program hfig
  
  initial wavefunction generated automatically from atomic wavefunctions
  Only one state below 0.010000
  Skip d-d repulsion considerations 
 
  Irreducible     Total no   No of occupied orbitals 
  representation  orbitals   Shell_1  Shell_2    ...
  No Symm          522        105
  ------------------------
  Orbital occupation/shell    1.000
 
  Peak memory usage:   1244 Mb
  
  end of program hfig
   
 Time(hfig)  user:        0.9  user+sys:        0.9  wallclock:        0.6
  
  start of program probe
  
  Peak memory usage:   1233 Mb
  
  end of program probe
   
 Time(probe)  user:        0.8  user+sys:        0.8  wallclock:        0.3
  
  start of program grid
  
   grid     grid set  grid #  grid sym
  ------    --------  ------  --------
  coarse        0        0        1
  medium        2        1        1
  fine          0        0        1
  ultrafine     4        2        1
  charge        0        0        1
  gradient      4        2        1
  density       0        0        1
  DFT-fine    -13        3        1
  DFT-med.    -13        3        1
  DFT-grad    -13        3        1
  DFT-der2     -8        4        1
  DFT-cphf     -9        5        1
  LMP2-enrg     4        2        1
  LMP2-grad     2        1        1
  DFT-cphf2   -15        6        1
  PBF-dens      0        0        1
  plotting      0        0        1
  Rel-grad    -17        0        1
  
  number of gridpoints: 
     atom       Rh1       O2       C3       N4       C5       C6       C7
  grid # 1      301      116       83      102       92       82      103
  grid # 2      234      473      296      335      359      267      389
  grid # 3    35544    23820    15816    16030    15816    15816    15816
  grid # 4    32864    23252    13988    14170    13988    13988    13988
  grid # 5     1144      774      748      756      748      748      748
  grid # 6     2168      416      394      406      394      394      394
   
  number of gridpoints: 
     atom        N8       H9      H10      H11      H12      P13      P14
  grid # 1      117      112      109      116      117      608      619
  grid # 2      491      454      442      449      466      425      438
  grid # 3    16030    17074    17074    17074    17074    24032    24032
  grid # 4    14170    15058    15058    15058    15058    23016    23016
  grid # 5      756      786      786      786      786      722      722
  grid # 6      406      420      420      420      420      370      370
   
  number of gridpoints: 
     atom       C15      C16      H17      H18      C19      C20      C21
  grid # 1       80       80       98      104       80       79       79
  grid # 2      300      299      445      444      329      327      327
  grid # 3    15816    15816    17074    17074    15816    15816    15816
  grid # 4    13988    13988    15058    15058    13988    13988    13988
  grid # 5      748      748      786      786      748      748      748
  grid # 6      394      394      420      420      394      394      394
   
  number of gridpoints: 
     atom       C22      H23      H24      H25      H26      C27      H28
  grid # 1       80      103      103      105      103       92      109
  grid # 2      328      440      443      435      436      279      445
  grid # 3    15816    17074    17074    17074    17074    15816    17074
  grid # 4    13988    15058    15058    15058    15058    13988    15058
  grid # 5      748      786      786      786      786      748      786
  grid # 6      394      420      420      420      420      394      420
   
  number of gridpoints: 
     atom       H29      C30      H31      H32      C33      H34      H35
  grid # 1      112       91      108      112       92      110      112
  grid # 2      451      279      445      451      278      445      451
  grid # 3    17074    15816    17074    17074    15816    17074    17074
  grid # 4    15058    13988    15058    15058    13988    15058    15058
  grid # 5      786      748      786      786      748      786      786
  grid # 6      420      394      420      420      394      420      420
   
  number of gridpoints: 
     atom       C36      H37      H38      C39      H40      H41      H42
  grid # 1       91      112      108       81      105      110      106
  grid # 2      278      451      446      234      440      457      440
  grid # 3    15816    17074    17074    15816    17074    17074    17074
  grid # 4    13988    15058    15058    13988    15058    15058    15058
  grid # 5      748      786      786      748      786      786      786
  grid # 6      394      420      420      394      420      420      420
   
  number of gridpoints: 
     atom       C43      H44      H45      H46      C47      H48      H49
  grid # 1       81      105      109      103       81      107      109
  grid # 2      235      438      456      431      236      443      456
  grid # 3    15816    17074    17074    17074    15816    17074    17074
  grid # 4    13988    15058    15058    15058    13988    15058    15058
  grid # 5      748      786      786      786      748      786      786
  grid # 6      394      420      420      420      394      420      420
   
  number of gridpoints: 
     atom       H50      C51      H52      H53      H54      H55      H56
  grid # 1      105       81      105      110      106      100      106
  grid # 2      437      236      433      458      439      434      444
  grid # 3    17074    15816    17074    17074    17074    17074    17074
  grid # 4    15058    13988    15058    15058    15058    15058    15058
  grid # 5      786      748      786      786      786      786      786
  grid # 6      420      394      420      420      420      420      420
   
  number of gridpoints: 
     atom       H57      H58    total
  grid # 1      100      104     7034
  grid # 2      435      444    22796
  grid # 3    17074    17074  1004692
  grid # 4    15058    15058   894244
  grid # 5      786      786    45062
  grid # 6      420      420    25508
   
  Peak memory usage:   1259 Mb
  
  end of program grid
   
 Time(grid)  user:       89.1  user+sys:       89.1  wallclock:       30.6
  
  start of program rwr
  
  Peak memory usage:   1232 Mb
  
  end of program rwr
   
 Time(rwr)  user:       12.8  user+sys:       12.8  wallclock:        6.6
  
  start of program scf
  
 number of electrons..........        210
 number of alpha electrons....        105
 number of beta electrons.....        105
 number of orbitals, total....        522
 number of doubly-occ'd orbs..        105
 number of open shell orbs....          0
 number of occupied orbitals..        105
 number of virtual orbitals...        417
 number of hamiltonians.......          1
 number of shells.............          1
 SCF type: DFT=Becke_3_Parameter/HF+Slater+Becke88+VWN+LYP (B3LYP)
 Energy computed with NOPS off.
 Convergence Criterion:
    Energy (econv):       1.00E-05
    RMS density (dconv):  5.00E-06
  
       i  u  d  i  g                   
       t  p  i  c  r                                 RMS    maximum
       e  d  i  u  i                       energy  density   DIIS  
       r  t  s  t  d       total energy    change  change    error 
  
etot    1  N  N  1  U   -1678.52956564253           3.4E-03  1.1E-01
etot    2  N  Y  1  U   -1681.92897845345  3.4E+00  3.4E-03  5.6E-02
etot    3  N  Y  1  U   -1682.24854154164  3.2E-01  2.0E-03  1.0E-01
etot    4  N  Y  1  U   -1683.00594087436  7.6E-01  1.3E-03  3.5E-02
etot    5  N  Y  1  U   -1683.15611966511  1.5E-01  6.3E-04  2.0E-02
etot    6  N  Y  1  U   -1683.20587188784  5.0E-02  1.6E-04  5.2E-03
etot    7  N  Y  1  U   -1683.21069370704  4.8E-03  5.7E-05  3.1E-03
etot    8  N  Y  1  U   -1683.21170355430  1.0E-03  2.0E-05  8.6E-04
etot    9  N  Y  1  U   -1683.21177008133  6.7E-05  6.6E-06  1.4E-04
etot   10  N  Y  1  U   -1683.21177617043  6.1E-06  3.1E-06  9.0E-05
etot   11  N  N  1  U   -1683.21177759618  1.4E-06  0.0E+00  0.0E+00
  
  
 Energy components, in hartrees:
   (A)  Nuclear repulsion............    3029.64027603398
   (E)  Total one-electron terms.....   -8350.28946422040
   (I)  Total two-electron terms.....    3637.43741059024
   (J)    Coulomb....................    3828.01764880992
   (K)    Exchange+Correlation.......    -190.58023821967
   (L)  Electronic energy............   -4712.85205363016  (E+I)
   (N)  Total energy.................   -1683.21177759618  (A+L)
   (O)  Gas phase energy.............   -1683.21177759618
  
 SCFE: SCF energy: DFT(b3lyp)     -1683.21177759618 hartrees   iterations:  11
  
 
 HOMO energy:    -0.34282
 LUMO energy:    -0.17543
 
  Orbital energies (hartrees): 
   -77.23042   -77.21045   -19.29024   -14.52063   -14.44123   -10.43475
   -10.38650   -10.36088   -10.33590   -10.32272   -10.32030   -10.31712
   -10.31346   -10.30930   -10.30749   -10.29570   -10.29466   -10.28878
   -10.28862   -10.28530   -10.28300   -10.27788   -10.27296    -6.70822
    -6.69010    -4.86963    -4.86919    -4.86820    -4.85176    -4.85105
    -4.84931    -3.26114    -2.06918    -2.06141    -2.05154    -1.19583
    -1.08559    -1.00830    -0.95383    -0.94372    -0.92384    -0.90616
    -0.88338    -0.87496    -0.83190    -0.82291    -0.81015    -0.79655
    -0.76161    -0.75249    -0.74498    -0.74255    -0.72708    -0.71923
    -0.68574    -0.67761    -0.66187    -0.64896    -0.63286    -0.61666
    -0.59098    -0.58724    -0.58376    -0.58319    -0.57514    -0.56704
    -0.56570    -0.55462    -0.54695    -0.54277    -0.53843    -0.53467
    -0.52659    -0.52216    -0.51982    -0.51364    -0.51102    -0.50891
    -0.49755    -0.49220    -0.48397    -0.48055    -0.47647    -0.47166
    -0.46570    -0.46369    -0.45881    -0.45648    -0.44847    -0.44513
    -0.44247    -0.44035    -0.43909    -0.43733    -0.43318    -0.43099
    -0.42809    -0.42243    -0.42141    -0.41221    -0.40541    -0.39698
    -0.38707    -0.37967    -0.34282    -0.17543    -0.16377    -0.13281
    -0.11425    -0.09020    -0.08400    -0.08332    -0.06933    -0.06764
    -0.05970
 
  Peak memory usage:   1735 Mb
  
  end of program scf
   
 Time(scf)  user:      438.1  user+sys:      438.1  wallclock:      159.7
  
  start of program cutabab2
  
  Peak memory usage:   1564 Mb
  
  end of program cutabab2
   
 Time(cutabab2)  user:        1.7  user+sys:        1.7  wallclock:        0.8
  
  start of program der2a
  
  Peak memory usage:   1551 Mb
  
  end of program der2a
   
 Time(der2a)  user:       33.1  user+sys:       33.1  wallclock:       11.9
  
  start of program der2b
  
  Peak memory usage:   1914 Mb
  
  end of program der2b
   
 Time(der2b)  user:     2631.6  user+sys:     2631.6  wallclock:      881.7
  
  start of program der2nda
  
 
  Peak memory usage:    976 Mb
  
  end of program der2nda
   
 Time(der2nda)  user:       14.5  user+sys:       14.5  wallclock:       14.8
  
  start of program der2ndb
  
  Peak memory usage:   1607 Mb
  
  end of program der2ndb
   
 Time(der2ndb)  user:     3393.4  user+sys:     3393.4  wallclock:     1151.4
  
  start of program rwr
  
  Peak memory usage:   1232 Mb
  
  end of program rwr
   
 Time(rwr)  user:       13.0  user+sys:       13.0  wallclock:        7.2
  
  start of program cphfa
  
      11  vectors produced in CPHF
  
     v    i  j  k  i  g
     e    t  c  c  c  r
     c    e  o  o  u  i
     t    r  r  r  t  d       RMS  
  
     1    1  5  2  6  M     5.0E-03
     1    2  5  2  6  M     4.5E-04
     1    3  0  0  6  M     2.5E-04
     1    4  0  0  6  M     1.0E-04
     1    5  0  0  6  M     4.1E-05
  
     v    i  j  k  i  g
     e    t  c  c  c  r
     c    e  o  o  u  i
     t    r  r  r  t  d       RMS  
  
     2    1  5  2  6  M     4.8E-03
     2    2  5  2  6  M     2.7E-04
     2    3  0  0  6  M     1.5E-04
     2    4  0  0  6  M     7.2E-05
     2    5  0  0  6  M     3.0E-05
  
     v    i  j  k  i  g
     e    t  c  c  c  r
     c    e  o  o  u  i
     t    r  r  r  t  d       RMS  
  
     3    1  5  2  6  M     4.7E-03
     3    2  5  2  6  M     3.1E-04
     3    3  0  0  6  M     1.4E-04
     3    4  0  0  6  M     5.9E-05
     3    5  0  0  6  M     3.3E-05
  
     v    i  j  k  i  g
     e    t  c  c  c  r
     c    e  o  o  u  i
     t    r  r  r  t  d       RMS  
  
     4    1  5  2  6  M     5.0E-03
     4    2  5  2  6  M     5.6E-04
     4    3  0  0  6  M     1.9E-04
     4    4  0  0  6  M     9.6E-05
     4    5  0  0  6  M     3.7E-05
  
     v    i  j  k  i  g
     e    t  c  c  c  r
     c    e  o  o  u  i
     t    r  r  r  t  d       RMS  
  
     5    1  5  2  6  M     5.2E-03
     5    2  5  2  6  M     4.5E-04
     5    3  0  0  6  M     2.0E-04
     5    4  0  0  6  M     8.7E-05
     5    5  0  0  6  M     4.8E-05
  
     v    i  j  k  i  g
     e    t  c  c  c  r
     c    e  o  o  u  i
     t    r  r  r  t  d       RMS  
  
     6    1  5  2  6  M     5.2E-03
     6    2  5  2  6  M     2.8E-04
     6    3  0  0  6  M     1.5E-04
     6    4  0  0  6  M     7.9E-05
     6    5  0  0  6  M     3.7E-05
  
     v    i  j  k  i  g
     e    t  c  c  c  r
     c    e  o  o  u  i
     t    r  r  r  t  d       RMS  
  
     7    1  5  2  6  M     5.0E-03
     7    2  5  2  6  M     3.4E-04
     7    3  0  0  6  M     1.4E-04
     7    4  0  0  6  M     5.9E-05
     7    5  0  0  6  M     3.2E-05
  
     v    i  j  k  i  g
     e    t  c  c  c  r
     c    e  o  o  u  i
     t    r  r  r  t  d       RMS  
  
     8    1  5  2  6  M     5.0E-03
     8    2  5  2  6  M     2.3E-04
     8    3  0  0  6  M     1.2E-04
     8    4  0  0  6  M     4.6E-05
  
     v    i  j  k  i  g
     e    t  c  c  c  r
     c    e  o  o  u  i
     t    r  r  r  t  d       RMS  
  
     9    1  5  2  6  M     4.9E-03
     9    2  5  2  6  M     2.8E-04
     9    3  0  0  6  M     1.4E-04
     9    4  0  0  6  M     5.3E-05
     9    5  0  0  6  M     3.0E-05
  
     v    i  j  k  i  g
     e    t  c  c  c  r
     c    e  o  o  u  i
     t    r  r  r  t  d       RMS  
  
    10    1  5  2  6  M     5.1E-03
    10    2  5  2  6  M     3.5E-04
    10    3  0  0  6  M     1.8E-04
    10    4  0  0  6  M     1.1E-04
    10    5  0  0  6  M     3.9E-05
  
     v    i  j  k  i  g
     e    t  c  c  c  r
     c    e  o  o  u  i
     t    r  r  r  t  d       RMS  
  
    11    1  5  2  6  M     5.0E-03
    11    2  5  2  6  M     1.7E-04
    11    3  0  0  6  M     1.4E-04
    11    4  0  0  6  M     5.1E-05
    11    5  0  0  6  M     2.2E-05
  
  
  Atomic Polar Tensors (au): Total
  =========================
  
  APT for atom Rh1     
  --------------------------------------
       -0.6010       0.1089       0.0138
        0.3084      -0.4404       0.1898
        0.0097       0.1108      -0.1377
  --------------------------------------
  
  APT for atom O2      
  --------------------------------------
       -0.8618      -0.0443      -0.3086
       -0.0336      -0.1575      -0.0648
       -0.3888       0.0271      -1.0487
  --------------------------------------
  
  APT for atom C3      
  --------------------------------------
        1.3498       0.0334       0.2663
        0.1023       0.2088       0.0104
       -0.0147       0.0244       0.6428
  --------------------------------------
  
  APT for atom N4      
  --------------------------------------
       -0.6816       0.0363       0.0006
        0.0333      -0.3404      -0.0261
        0.2855       0.0100      -0.3732
  --------------------------------------
  
  APT for atom C5      
  --------------------------------------
       -0.3593      -0.2347      -0.0796
        0.3927       0.3487       0.0432
       -0.0470      -0.0577       0.4715
  --------------------------------------
  
  APT for atom C6      
  --------------------------------------
        0.7550       0.2718       0.2137
       -0.1869       0.0507       0.0029
        0.2189      -0.0215       0.0815
  --------------------------------------
  
  APT for atom C7      
  --------------------------------------
        0.5041      -0.0272      -0.0252
       -0.2957       0.0384       0.0085
       -0.3065       0.0278      -0.0547
  --------------------------------------
  
  APT for atom N8      
  --------------------------------------
       -0.4835      -0.0275      -0.0181
        0.1378      -0.2533       0.0260
        0.1170       0.0233      -0.2414
  --------------------------------------
  
  APT for atom H9      
  --------------------------------------
       -0.0358      -0.1001      -0.0141
       -0.0278       0.0525      -0.0195
       -0.0039      -0.0275       0.0319
  --------------------------------------
  
  APT for atom H10     
  --------------------------------------
        0.0444      -0.0379      -0.0073
       -0.0341       0.0597      -0.0031
        0.0102       0.0054       0.0240
  --------------------------------------
  
  APT for atom H11     
  --------------------------------------
        0.2727       0.0129       0.0652
       -0.0334       0.2893       0.0242
        0.0161       0.0273       0.1423
  --------------------------------------
  
  APT for atom H12     
  --------------------------------------
        0.0500       0.0025      -0.1113
       -0.0129       0.0907       0.0220
       -0.0436      -0.0019      -0.0668
  --------------------------------------
  
  APT for atom P13     
  --------------------------------------
        0.7194      -0.0462       0.2356
       -0.0086       0.8598      -0.1471
        0.2366      -0.2623       1.2094
  --------------------------------------
  
  APT for atom P14     
  --------------------------------------
        0.8133       0.1742       0.0477
        0.1405       0.9440      -0.1879
        0.1158      -0.0184       0.7279
  --------------------------------------
  
  APT for atom C15     
  --------------------------------------
       -0.1329       0.0406       0.0056
        0.0022      -0.0412      -0.0355
       -0.1188       0.1184      -0.3041
  --------------------------------------
  
  APT for atom C16     
  --------------------------------------
       -0.1229      -0.1332       0.0465
       -0.0039      -0.2883       0.0450
        0.0497       0.0160      -0.0642
  --------------------------------------
  
  APT for atom H17     
  --------------------------------------
       -0.3060      -0.0023      -0.0724
        0.0195       0.1388      -0.0143
        0.0405      -0.0364       0.1124
  --------------------------------------
  
  APT for atom H18     
  --------------------------------------
       -0.0572       0.0136      -0.0012
       -0.2321      -0.2930      -0.0174
        0.0320      -0.0102       0.1447
  --------------------------------------
  
  APT for atom C19     
  --------------------------------------
       -0.0476      -0.0785       0.1237
       -0.1306       0.0288      -0.1232
       -0.0385       0.0016      -0.1847
  --------------------------------------
  
  APT for atom C20     
  --------------------------------------
       -0.0726       0.0995      -0.3094
        0.0065      -0.0862      -0.0075
       -0.0744       0.0016      -0.0247
  --------------------------------------
  
  APT for atom C21     
  --------------------------------------
        0.0440       0.1312      -0.1158
        0.0225      -0.1549       0.0448
       -0.1109      -0.1097       0.0302
  --------------------------------------
  
  APT for atom C22     
  --------------------------------------
       -0.1086      -0.2992       0.0761
       -0.0877      -0.1110      -0.0317
        0.0368      -0.0910      -0.0641
  --------------------------------------
  
  APT for atom H23     
  --------------------------------------
       -0.0220      -0.0282      -0.0463
       -0.0503      -0.0315      -0.0463
       -0.0168      -0.0158      -0.0120
  --------------------------------------
  
  APT for atom H24     
  --------------------------------------
       -0.0253      -0.0183      -0.0323
       -0.0072      -0.0344      -0.0198
       -0.0445      -0.0680      -0.0542
  --------------------------------------
  
  APT for atom H25     
  --------------------------------------
       -0.0421      -0.0589      -0.0023
       -0.0548      -0.0607      -0.0406
       -0.0019       0.0015      -0.0803
  --------------------------------------
  
  APT for atom H26     
  --------------------------------------
       -0.0141      -0.0518       0.0255
       -0.0317      -0.0606      -0.0015
       -0.0204      -0.0314      -0.0867
  --------------------------------------
  
  APT for atom C27     
  --------------------------------------
        0.0832       0.2416      -0.0306
        0.0030       0.0611      -0.0249
        0.0513       0.0983       0.0740
  --------------------------------------
  
  APT for atom H28     
  --------------------------------------
        0.0052      -0.0613      -0.0166
       -0.0192      -0.0147      -0.0405
       -0.0242      -0.1075      -0.0476
  --------------------------------------
  
  APT for atom H29     
  --------------------------------------
       -0.0224       0.0400      -0.0347
        0.0346      -0.0725       0.0751
       -0.0301       0.1036      -0.0127
  --------------------------------------
  
  APT for atom C30     
  --------------------------------------
        0.0054      -0.0642       0.1490
        0.0245       0.0609       0.0551
        0.0060      -0.0448       0.1038
  --------------------------------------
  
  APT for atom H31     
  --------------------------------------
        0.0099      -0.0082      -0.0679
       -0.0092      -0.0227      -0.1032
       -0.0279      -0.0493      -0.0396
  --------------------------------------
  
  APT for atom H32     
  --------------------------------------
       -0.0261      -0.0446       0.0554
       -0.0585      -0.0296       0.0787
        0.0603       0.0823      -0.0120
  --------------------------------------
  
  APT for atom C33     
  --------------------------------------
        0.0312      -0.0155       0.0549
        0.0380       0.1715      -0.1232
        0.0397       0.0932      -0.0167
  --------------------------------------
  
  APT for atom H34     
  --------------------------------------
       -0.0210      -0.0426      -0.0322
       -0.0450      -0.0521      -0.0156
       -0.0654      -0.0858       0.0174
  --------------------------------------
  
  APT for atom H35     
  --------------------------------------
        0.0165       0.0093       0.0521
        0.0164       0.0228       0.0541
        0.0582       0.0369      -0.1066
  --------------------------------------
  
  APT for atom C36     
  --------------------------------------
       -0.0138       0.0630      -0.0411
        0.1051       0.0354       0.1956
        0.0238      -0.0387       0.1233
  --------------------------------------
  
  APT for atom H37     
  --------------------------------------
        0.0243       0.0493      -0.0156
        0.0642      -0.0600       0.0809
       -0.0357       0.0757      -0.0365
  --------------------------------------
  
  APT for atom H38     
  --------------------------------------
       -0.0178      -0.0477      -0.0241
       -0.0824      -0.0298      -0.0980
       -0.0168      -0.0280       0.0038
  --------------------------------------
  
  APT for atom C39     
  --------------------------------------
        0.0599      -0.0150       0.0207
        0.1396       0.0243       0.0612
       -0.0042       0.0581       0.0149
  --------------------------------------
  
  APT for atom H40     
  --------------------------------------
        0.0630      -0.0269       0.0295
       -0.0545       0.0772       0.0184
        0.0401       0.0203      -0.0976
  --------------------------------------
  
  APT for atom H41     
  --------------------------------------
       -0.0290       0.0673      -0.0320
        0.0775      -0.0426       0.0494
       -0.0489       0.0569       0.0619
  --------------------------------------
  
  APT for atom H42     
  --------------------------------------
        0.0210      -0.0143       0.0051
       -0.0807      -0.0380      -0.0762
       -0.0278      -0.0732       0.0181
  --------------------------------------
  
  APT for atom C43     
  --------------------------------------
        0.0628       0.0121      -0.0495
        0.0649       0.0182       0.0525
        0.0664       0.0387       0.0313
  --------------------------------------
  
  APT for atom H44     
  --------------------------------------
        0.0138       0.0078      -0.0043
        0.0125      -0.0391       0.0788
       -0.0448       0.0536       0.0721
  --------------------------------------
  
  APT for atom H45     
  --------------------------------------
       -0.0214      -0.0037       0.0658
       -0.0165       0.0917       0.0032
        0.0811       0.0101      -0.0736
  --------------------------------------
  
  APT for atom H46     
  --------------------------------------
        0.0146       0.0125      -0.0189
       -0.0395      -0.0464      -0.1066
       -0.0567      -0.0904       0.0231
  --------------------------------------
  
  APT for atom C47     
  --------------------------------------
        0.0135       0.0509       0.0200
       -0.0665       0.0315       0.0402
        0.0090      -0.0069       0.0386
  --------------------------------------
  
  APT for atom H48     
  --------------------------------------
        0.0560       0.0707      -0.0505
        0.0822      -0.0175       0.0365
       -0.0584       0.0693      -0.0401
  --------------------------------------
  
  APT for atom H49     
  --------------------------------------
       -0.0416      -0.0407       0.0961
       -0.0689       0.0089       0.0522
        0.1156       0.0334      -0.0040
  --------------------------------------
  
  APT for atom H50     
  --------------------------------------
        0.0324      -0.0244      -0.0708
        0.0166       0.0291      -0.0461
       -0.0552      -0.0575       0.0380
  --------------------------------------
  
  APT for atom C51     
  --------------------------------------
        0.0134       0.0205       0.0616
       -0.0179      -0.0031       0.0416
       -0.0136       0.1399       0.0524
  --------------------------------------
  
  APT for atom H52     
  --------------------------------------
        0.0353      -0.0260       0.0413
       -0.0494       0.0208       0.0394
        0.0487       0.0331       0.0089
  --------------------------------------
  
  APT for atom H53     
  --------------------------------------
        0.0002       0.1083      -0.0261
        0.0946      -0.0226       0.0234
       -0.0414       0.0325       0.0220
  --------------------------------------
  
  APT for atom H54     
  --------------------------------------
       -0.0040      -0.0730      -0.0746
       -0.0217       0.0343      -0.0545
       -0.0231      -0.0695      -0.0282
  --------------------------------------
  
  APT for atom H55     
  --------------------------------------
       -0.0120       0.0342       0.0240
       -0.0012       0.0757      -0.0006
        0.0638      -0.0031      -0.0165
  --------------------------------------
  
  APT for atom H56     
  --------------------------------------
        0.0327      -0.0379      -0.0370
       -0.0477      -0.0800       0.0188
       -0.0482      -0.0210       0.0319
  --------------------------------------
  
  APT for atom H57     
  --------------------------------------
       -0.0197       0.0044       0.0425
       -0.0179       0.0253       0.0246
        0.0665      -0.0187       0.0571
  --------------------------------------
  
  APT for atom H58     
  --------------------------------------
        0.0556       0.0176      -0.0677
       -0.0116       0.0255      -0.0203
       -0.0465       0.0155      -0.0822
  --------------------------------------
  
  Peak memory usage:   1678 Mb
  
  end of program cphfa
   
 Time(cphfa)  user:     9804.0  user+sys:     9804.0  wallclock:     4335.0
  
  start of program freq
  
   
  Number of frequencies: 168
  harmonic frequencies in cm**-1, reduced masses in amu,
  force constants in mDyne/A, and
  normal modes in cartesian coordinates:         168
  IR intensities in km/mol
  
  vibration #            1        2        3        4        5        6
                  -------- -------- -------- -------- -------- --------
  frequencies      -680.15    29.59    39.35    41.72    61.90    73.74
  intensities        21.01     0.10     0.20     0.06     3.32     2.12
  reduc. mass         0.76     0.57     1.15     1.16     1.77     0.91
  force const         0.21     0.00     0.00     0.00     0.00     0.00
    Rh1      X     0.00353 -0.01349 -0.00390 -0.00517 -0.00864 -0.00359
    Rh1      Y    -0.01555  0.00151 -0.00221 -0.00328 -0.00591  0.01131
    Rh1      Z     0.00125  0.00220 -0.00484 -0.00297  0.00552 -0.00767
    O2       X    -0.00185 -0.02130 -0.01846  0.01400  0.01390 -0.01466
    O2       Y     0.00012  0.00941 -0.00936  0.00466 -0.06943 -0.00550
    O2       Z    -0.00118  0.00198 -0.00361 -0.00336  0.00363 -0.00419
    C3       X     0.00321 -0.02400 -0.02055  0.01863  0.02083 -0.01594
    C3       Y    -0.00005  0.01913 -0.02211  0.01598 -0.08373 -0.06967
    C3       Z    -0.00001  0.00743  0.00050 -0.01303 -0.00932 -0.00114
    N4       X    -0.00321 -0.02120 -0.01709  0.01222  0.01217 -0.01220
    N4       Y     0.00465  0.02154 -0.03336  0.02050 -0.05222 -0.10068
    N4       Z    -0.00455  0.01240  0.00432 -0.02290 -0.01870  0.00210
    C5       X    -0.03449 -0.01549 -0.01061 -0.00056 -0.00188 -0.00233
    C5       Y    -0.01925  0.01116 -0.02948  0.01030  0.00042 -0.04999
    C5       Z    -0.00970  0.01071  0.00448 -0.02432 -0.01070  0.00937
    C6       X    -0.06225 -0.01673  0.00904 -0.01119 -0.02930  0.02043
    C6       Y     0.05122  0.00641 -0.01992  0.00449  0.00687 -0.02530
    C6       Z    -0.00567  0.00007  0.00638 -0.02785  0.03514  0.04478
    C7       X    -0.00348 -0.00892 -0.02633  0.00130  0.02864  0.00922
    C7       Y     0.01305  0.00832 -0.04698  0.01264  0.06245 -0.02341
    C7       Z     0.00062  0.02226  0.00359 -0.02469 -0.04064 -0.00604
    N8       X    -0.00343 -0.00271 -0.04228  0.00459  0.05841  0.02180
    N8       Y     0.00425  0.00565 -0.06511  0.01562  0.11937  0.00136
    N8       Z     0.00288  0.03440  0.00306 -0.02359 -0.06784 -0.01828
    H9       X     0.22445 -0.01908  0.01864 -0.00773 -0.04604  0.01785
    H9       Y     0.08143  0.01206 -0.02037  0.00894 -0.02161 -0.04936
    H9       Z     0.02988 -0.00650  0.00872 -0.03200  0.06258  0.07035
    H10      X     0.08954 -0.01545  0.01699 -0.02250 -0.03671  0.04442
    H10      Y     0.05731 -0.00087 -0.02047 -0.00037  0.04737  0.00579
    H10      Z     0.03444 -0.00215  0.00852 -0.03284  0.04639  0.06214
    H11      X    -0.00095 -0.02327 -0.01910  0.01642  0.01729 -0.01359
    H11      Y     0.00378  0.02795 -0.04094  0.02840 -0.06291 -0.14477
    H11      Z    -0.00748  0.01658  0.00755 -0.03008 -0.02859  0.00193
    H12      X    -0.00009 -0.02885 -0.02498  0.02836  0.03317 -0.02082
    H12      Y     0.00252  0.02637 -0.02482  0.02293 -0.12398 -0.10496
    H12      Z     0.00003  0.00837  0.00078 -0.01350 -0.01319 -0.00301
    P13      X    -0.00190 -0.00816  0.00008 -0.01265 -0.00109  0.00001
    P13      Y    -0.00107  0.00191  0.00543 -0.01056  0.00130  0.00536
    P13      Z     0.00134  0.00159 -0.00506 -0.00037  0.00266 -0.01110
    P14      X    -0.00759 -0.00671  0.00642 -0.00119 -0.01272 -0.01764
    P14      Y     0.00850 -0.00041 -0.00015 -0.00373  0.00167  0.01913
    P14      Z    -0.00080 -0.00671 -0.01196  0.00754 -0.00281  0.01170
    C15      X    -0.00115 -0.04619  0.00743 -0.00089 -0.01346  0.00232
    C15      Y     0.00028  0.02397  0.00168 -0.01760  0.00749  0.00183
    C15      Z    -0.00110  0.01346 -0.01401  0.00102  0.00539 -0.00765
    C16      X     0.00116 -0.05629  0.00149  0.00284 -0.01140 -0.02643
    C16      Y     0.00322  0.01000 -0.00047 -0.01166  0.00233  0.00033
    C16      Z    -0.00038  0.00037 -0.01071  0.00817 -0.00270  0.01808
    H17      X     0.00545 -0.01415 -0.00384 -0.00663 -0.00966 -0.00175
    H17      Y     0.14525 -0.00221  0.00202 -0.00887 -0.01032  0.03607
    H17      Z    -0.03578 -0.00135 -0.01242  0.00479  0.01461 -0.01512
    H18      X     0.86687 -0.01727  0.01259 -0.01621 -0.04265  0.02959
    H18      Y     0.10551  0.00145 -0.00006 -0.00400 -0.00688  0.01194
    H18      Z     0.05876  0.00325  0.00114 -0.00761  0.02579 -0.00764
    C19      X     0.00034  0.03452 -0.00815 -0.01531  0.02187 -0.02112
    C19      Y     0.00005  0.02615  0.00466 -0.00218  0.01445 -0.01810
    C19      Z     0.00054 -0.01506  0.00518  0.01461 -0.00464 -0.03538
    C20      X    -0.00050 -0.00050  0.00164 -0.01054 -0.00136  0.01539
    C20      Y    -0.00023 -0.04661  0.02663  0.01250 -0.02653  0.01773
    C20      Z    -0.00019  0.00652 -0.00268  0.00541  0.00070  0.00217
    C21      X    -0.00104  0.03049  0.02802 -0.00382 -0.01205  0.00391
    C21      Y     0.00145 -0.01982 -0.00488 -0.00094 -0.00220  0.02304
    C21      Z     0.00113  0.03185  0.01005  0.00662 -0.00602  0.04665
    C22      X     0.00307  0.02247  0.03169 -0.00301 -0.00359 -0.00149
    C22      Y     0.00798  0.00436  0.02328 -0.00180  0.02545  0.03052
    C22      Z     0.00080 -0.05392 -0.00786  0.01418  0.02162 -0.00138
    H23      X    -0.00082  0.05643 -0.02047 -0.06526  0.04244 -0.05671
    H23      Y     0.00221  0.02000  0.00000 -0.02281  0.01120 -0.00591
    H23      Z     0.00081 -0.02140  0.02173  0.08415 -0.01441 -0.02904
    H24      X     0.00472  0.04529  0.07413 -0.01252 -0.01309 -0.01314
    H24      Y     0.00406  0.00629  0.05960 -0.00246  0.04836  0.02848
    H24      Z     0.00167 -0.07303 -0.06771  0.02211  0.01234  0.00938
    H25      X     0.00170  0.02008  0.06470 -0.00907  0.01126 -0.03058
    H25      Y     0.00202 -0.02670 -0.07576  0.00669 -0.03106  0.04749
    H25      Z    -0.00192  0.04673  0.04188  0.00430 -0.00006  0.05411
    H26      X    -0.00010 -0.02258  0.00037 -0.06698 -0.01366  0.03657
    H26      Y     0.00030 -0.04345  0.03704  0.07077 -0.02840  0.01218
    H26      Z    -0.00129  0.01273 -0.01692 -0.05038  0.00940 -0.00045
    C27      X    -0.00043  0.05463  0.06617 -0.00674  0.00821  0.01011
    C27      Y     0.00435 -0.00303  0.06143 -0.00663  0.03127  0.01027
    C27      Z    -0.00184 -0.02697  0.09027  0.00234  0.04381 -0.01927
    H28      X     0.00222  0.03652  0.05954 -0.00342  0.01961  0.00380
    H28      Y     0.00400 -0.00584  0.00361 -0.00151  0.00838  0.02716
    H28      Z    -0.00268 -0.01444  0.15032 -0.00448  0.06000 -0.03238
    H29      X     0.00391  0.08191  0.09358 -0.01043  0.01287  0.01835
    H29      Y     0.00670  0.00168  0.12083 -0.01166  0.05635 -0.00564
    H29      Z    -0.00398 -0.04724  0.11463  0.00150  0.06024 -0.03951
    C30      X    -0.00031  0.07125  0.06815 -0.00912 -0.00411  0.01837
    C30      Y     0.00097 -0.01302  0.08773 -0.01022  0.03442 -0.00690
    C30      Z    -0.00015  0.01058  0.06687  0.00194  0.02202  0.01112
    H31      X    -0.00113  0.09294  0.07218 -0.01169 -0.01570  0.02995
    H31      Y     0.00028 -0.00965  0.15786 -0.01710  0.06160 -0.02929
    H31      Z     0.00039 -0.00170  0.01556  0.00794  0.00805  0.02157
    H32      X     0.00000  0.09069  0.09246 -0.01199  0.00376  0.02284
    H32      Y    -0.00028 -0.01938  0.10148 -0.01212  0.03505 -0.01635
    H32      Z    -0.00208  0.03404  0.13290 -0.00633  0.03689  0.00289
    C33      X     0.00009  0.04003  0.00376  0.05600  0.01424  0.00814
    C33      Y    -0.00012 -0.04223  0.03902  0.08009 -0.02909  0.01136
    C33      Z    -0.00005 -0.00676  0.01754  0.08952 -0.01120 -0.00434
    H34      X     0.00053  0.06279 -0.00229  0.05419  0.02869 -0.01260
    H34      Y    -0.00020 -0.05334  0.03305  0.03649 -0.03218  0.01948
    H34      Z    -0.00008 -0.01221  0.03645  0.17739 -0.02248  0.00455
    H35      X    -0.00010  0.04230  0.01153  0.09919  0.00921  0.02671
    H35      Y     0.00068 -0.06068  0.05841  0.15321 -0.04520  0.01622
    H35      Z    -0.00013 -0.00482  0.01867  0.09811 -0.01171  0.00114
    C36      X     0.00044  0.04524  0.00217  0.05389  0.01774  0.00364
    C36      Y     0.00080  0.00221  0.03076  0.09254 -0.00530 -0.01379
    C36      Z     0.00035 -0.01484  0.01024  0.04005 -0.00751 -0.02939
    H37      X     0.00018  0.07464  0.00055  0.08045  0.03092 -0.00718
    H37      Y     0.00042  0.00761  0.03563  0.12099 -0.00413 -0.01981
    H37      Z    -0.00038 -0.02498  0.02409  0.09154 -0.01531 -0.03598
    H38      X    -0.00020  0.02621  0.01000  0.07281  0.00378  0.02661
    H38      Y     0.00009  0.01209  0.03799  0.13666 -0.00273 -0.02395
    H38      Z     0.00186 -0.01023 -0.00611 -0.03348  0.00183 -0.03719
    C39      X     0.00002  0.03039 -0.00972 -0.02816  0.02173 -0.02622
    C39      Y     0.00030  0.06990 -0.01292 -0.05666  0.04712 -0.05762
    C39      Z     0.00005 -0.02003 -0.00895 -0.06792  0.00531 -0.07313
    H40      X     0.00066  0.02316 -0.01783 -0.08078  0.02619 -0.05187
    H40      Y    -0.00195  0.08723 -0.03056 -0.11355  0.06455 -0.06848
    H40      Z    -0.00024 -0.01949 -0.01233 -0.08360  0.00796 -0.07890
    H41      X     0.00010  0.05608 -0.01478 -0.03555  0.03724 -0.04037
    H41      Y     0.00046  0.07960 -0.01230 -0.05407  0.05249 -0.06822
    H41      Z     0.00035 -0.03275  0.00063 -0.04925 -0.00374 -0.08086
    H42      X     0.00085  0.01044  0.00189  0.02182  0.00275  0.00818
    H42      Y     0.00068  0.07584 -0.00879 -0.04318  0.04880 -0.06542
    H42      Z    -0.00130 -0.01207 -0.02553 -0.13257  0.01904 -0.09051
    C43      X    -0.00033 -0.00554  0.00138 -0.01702 -0.00292  0.01306
    C43      Y     0.00000 -0.08704  0.01921 -0.09968 -0.04246  0.04374
    C43      Z     0.00034  0.01627 -0.00386 -0.00690 -0.00057  0.02260
    H44      X     0.00104 -0.03541 -0.00056 -0.07509 -0.01209  0.02308
    H44      Y     0.00156 -0.09027  0.01143 -0.14206 -0.04737  0.04544
    H44      Z     0.00224  0.02550 -0.01634 -0.05111 -0.00493  0.02010
    H45      X    -0.00019  0.00100  0.00148 -0.02000 -0.00316  0.02605
    H45      Y     0.00020 -0.11084  0.03104 -0.09223 -0.04431  0.06013
    H45      Z     0.00039  0.01994 -0.00368 -0.00853 -0.00077  0.03049
    H46      X    -0.00054  0.01499  0.00304  0.04184  0.00570 -0.01203
    H46      Y    -0.00024 -0.09350  0.01041 -0.15438 -0.04973  0.04780
    H46      Z     0.00092  0.01278  0.00767  0.03389  0.00424  0.03209
    C47      X    -0.00076  0.03353 -0.02753  0.00414 -0.04436  0.04453
    C47      Y     0.00106 -0.03264 -0.01102  0.00164 -0.00806  0.02802
    C47      Z     0.00019  0.05704 -0.06078  0.01403 -0.04333  0.09858
    H48      X     0.00206  0.01014 -0.04258  0.00459 -0.04492  0.03178
    H48      Y     0.00202 -0.03564 -0.07500  0.00750 -0.03542  0.05388
    H48      Z    -0.00026  0.07103 -0.10122  0.01842 -0.06476  0.12822
    H49      X    -0.00016  0.05283 -0.01524  0.00383 -0.04399  0.05531
    H49      Y    -0.00009 -0.04350 -0.01066  0.00330 -0.01079  0.02881
    H49      Z    -0.00020  0.07197 -0.04538  0.01502 -0.04513  0.11253
    H50      X     0.00047  0.04028 -0.06650  0.01019 -0.06860  0.07816
    H50      Y     0.00041 -0.02872  0.04728 -0.00379  0.01663  0.00396
    H50      Z    -0.00042  0.04667 -0.08901  0.01462 -0.04844  0.09415
    C51      X    -0.00022 -0.00918 -0.02480  0.00922  0.00759  0.01173
    C51      Y     0.00300  0.01317 -0.03685  0.00525  0.02294  0.05851
    C51      Z    -0.00080 -0.08794 -0.02815  0.02183  0.03396 -0.00392
    H52      X     0.00438 -0.02813 -0.03556  0.01019 -0.00143 -0.00720
    H52      Y     0.00044  0.01841 -0.06556  0.00898  0.02548  0.07382
    H52      Z     0.00138 -0.10390 -0.09008  0.02931  0.02536 -0.00243
    H53      X    -0.00480  0.01103 -0.01134  0.00761  0.01549  0.02919
    H53      Y     0.00105  0.01580 -0.02377  0.00678  0.03831  0.07361
    H53      Z     0.00285 -0.11283 -0.02831  0.02633  0.04478 -0.00696
    H54      X    -0.00189 -0.03130 -0.06881  0.01896  0.01796  0.02476
    H54      Y     0.00296  0.01268 -0.06484  0.00504  0.00710  0.04769
    H54      Z     0.00043 -0.07274  0.02127  0.01544  0.03821 -0.00488
    H55      X     0.00160 -0.07180  0.00042  0.00433 -0.01258 -0.02837
    H55      Y     0.00236 -0.00972 -0.00722 -0.01022  0.00407 -0.02842
    H55      Z     0.00121 -0.02101 -0.01006  0.01059 -0.00589  0.02598
    H56      X     0.00416 -0.07581 -0.00361  0.00621 -0.01249 -0.04509
    H56      Y     0.00053  0.02181  0.00268 -0.01406  0.00326  0.01149
    H56      Z     0.00813  0.01374 -0.00878  0.01078 -0.00499  0.03121
    H57      X    -0.00047 -0.03592  0.00398 -0.00370 -0.00973 -0.00460
    H57      Y    -0.00040  0.04341  0.00021 -0.02158  0.00945  0.01669
    H57      Z    -0.00009  0.02959 -0.02130 -0.00377  0.01305 -0.02790
    H58      X    -0.00021 -0.06603  0.01523  0.00434 -0.02146  0.01923
    H58      Y    -0.00254  0.02749  0.00289 -0.02220  0.01044 -0.00865
    H58      Z    -0.00058  0.01553 -0.01531  0.00106  0.00604 -0.00825
  
  vibration #            7        8        9       10       11       12
                  -------- -------- -------- -------- -------- --------
  frequencies        82.58    87.46    93.73   101.60   120.41   130.75
  intensities         1.43     1.17     1.61     2.70     3.54     1.49
  reduc. mass         1.29     1.27     2.26     0.83     2.12     1.01
  force const         0.01     0.01     0.01     0.01     0.02     0.01
    Rh1      X    -0.00801 -0.01824 -0.00430 -0.01150  0.00710 -0.01725
    Rh1      Y     0.01513 -0.01137  0.01909 -0.00951  0.01378 -0.00723
    Rh1      Z     0.00678  0.00602  0.02886  0.00195  0.01013 -0.00356
    O2       X    -0.01420 -0.00334  0.04218  0.04045 -0.01937 -0.01290
    O2       Y     0.02742 -0.00831 -0.02298  0.00680  0.13544  0.08329
    O2       Z     0.00457  0.00320  0.03333 -0.00383  0.00397 -0.00075
    C3       X    -0.01068  0.00521  0.05250  0.04928 -0.01977 -0.00641
    C3       Y    -0.00348  0.01101 -0.01547  0.03464  0.06124  0.03437
    C3       Z    -0.00262 -0.01331  0.01133 -0.02192  0.00620 -0.01433
    N4       X    -0.01252 -0.00616  0.03777  0.03854 -0.01155 -0.01240
    N4       Y    -0.04049  0.02214  0.01456  0.03129 -0.05857 -0.05107
    N4       Z    -0.01093 -0.03025 -0.00958 -0.03920  0.00392 -0.03386
    C5       X    -0.01779 -0.03337  0.00450  0.02128  0.00120 -0.02609
    C5       Y    -0.03592  0.01743  0.02297 -0.01405 -0.03628 -0.04214
    C5       Z    -0.01067 -0.03056 -0.00734 -0.04571  0.00724 -0.03311
    C6       X     0.01187 -0.05388 -0.00440  0.01249  0.02290 -0.01846
    C6       Y    -0.01874  0.01360  0.02636 -0.02633 -0.01766 -0.02704
    C6       Z    -0.00477 -0.02192  0.01088 -0.06826  0.02384 -0.01330
    C7       X    -0.04554 -0.05470 -0.03619  0.03891  0.02075 -0.00094
    C7       Y    -0.05531  0.01560  0.00179 -0.02479  0.00387 -0.01533
    C7       Z    -0.02414 -0.05417 -0.03438 -0.01263 -0.01355 -0.03302
    N8       X    -0.07370 -0.08102 -0.07637  0.06518  0.03834  0.02784
    N8       Y    -0.07208  0.01257 -0.02796 -0.03663  0.06745  0.01453
    N8       Z    -0.04359 -0.08782 -0.05514  0.03881 -0.06618 -0.02835
    H9       X     0.03753 -0.04913  0.01598  0.03767  0.02202 -0.00480
    H9       Y    -0.01713  0.01126  0.02175 -0.00540 -0.02874 -0.03758
    H9       Z    -0.00139 -0.01841  0.02000 -0.08600  0.03612  0.00097
    H10      X     0.01872 -0.07282 -0.02589 -0.01004  0.04774 -0.01498
    H10      Y    -0.02258  0.01933  0.03339 -0.05324 -0.00343 -0.01127
    H10      Z    -0.00428 -0.02536  0.00707 -0.08324  0.03557 -0.00661
    H11      X    -0.01037  0.00121  0.04829  0.04514 -0.01475 -0.00617
    H11      Y    -0.05605  0.04272  0.01538  0.04512 -0.09339 -0.07287
    H11      Z    -0.01576 -0.04236 -0.02878 -0.05032  0.00762 -0.04657
    H12      X    -0.00573  0.02126  0.07503  0.06621 -0.02755  0.00489
    H12      Y    -0.00218  0.02039 -0.03204  0.06312  0.08744  0.05723
    H12      Z    -0.00302 -0.01430  0.00813 -0.02169  0.00854 -0.01394
    P13      X     0.00265  0.04094 -0.01059 -0.00879  0.01878 -0.03075
    P13      Y     0.00611 -0.00706  0.01967  0.00466 -0.00275 -0.01349
    P13      Z     0.00220 -0.00785  0.02392  0.00537  0.00318  0.01530
    P14      X     0.00765 -0.01181  0.01551 -0.04534 -0.01299  0.02974
    P14      Y     0.01373 -0.01263  0.00789 -0.00323 -0.00201 -0.00656
    P14      Z     0.01169  0.01724 -0.00120  0.00665  0.01901 -0.02077
    C15      X     0.00867  0.04104 -0.00377 -0.01066  0.01008 -0.00829
    C15      Y     0.00115 -0.00591  0.01835  0.00880  0.00374 -0.02301
    C15      Z     0.01375 -0.02509  0.02288 -0.01419  0.00799 -0.00368
    C16      X     0.03681 -0.00665  0.02453 -0.03769  0.00009  0.03125
    C16      Y     0.01245 -0.01368  0.02336  0.00076  0.00480 -0.01036
    C16      Z     0.00615  0.01429 -0.00453  0.00214  0.01476 -0.02043
    H17      X    -0.00900 -0.02380 -0.00470 -0.01038  0.00687 -0.01977
    H17      Y     0.02372 -0.04440  0.02084  0.00869  0.02816 -0.01234
    H17      Z    -0.00097 -0.00960  0.04269  0.02871 -0.00040 -0.00101
    H18      X     0.01998 -0.05996  0.00551  0.00490  0.04291 -0.01027
    H18      Y     0.01710 -0.01099  0.02200 -0.01139  0.00992 -0.00566
    H18      Z    -0.00131  0.00641  0.04710 -0.01033 -0.02245 -0.01029
    C19      X     0.01653  0.04463 -0.01770 -0.00052  0.00441 -0.00085
    C19      Y     0.01636  0.00146 -0.01132  0.00563 -0.01287  0.00422
    C19      Z     0.00398  0.00607 -0.03882 -0.00776  0.00562  0.01309
    C20      X    -0.01101  0.05196  0.01162  0.02243  0.00677  0.00342
    C20      Y    -0.01706  0.02668 -0.01662  0.02082 -0.00297 -0.00796
    C20      Z    -0.01241 -0.00500  0.03883  0.03163 -0.00910  0.05282
    C21      X     0.00161 -0.00122  0.00398 -0.02709 -0.01201  0.02103
    C21      Y    -0.02491 -0.00468 -0.00277 -0.04482 -0.03945  0.02659
    C21      Z    -0.02136  0.04083 -0.02635  0.00659 -0.00200 -0.02001
    C22      X     0.02538 -0.00946  0.00483 -0.01306 -0.00989  0.01832
    C22      Y     0.04422 -0.01842 -0.01391  0.03145 -0.01896 -0.01115
    C22      Z     0.03494  0.00756 -0.01909  0.00626 -0.01230 -0.00254
    H23      X     0.03643  0.06186 -0.05582  0.00029 -0.01007  0.02652
    H23      Y     0.01146 -0.00556  0.01552  0.00765 -0.00689 -0.00624
    H23      Z    -0.00262  0.00520 -0.05404 -0.01139  0.00623  0.01025
    H24      X    -0.02001 -0.00186  0.02785 -0.02884  0.02091  0.01314
    H24      Y     0.05228 -0.02000 -0.03086  0.05307 -0.03241 -0.01137
    H24      Z     0.06437  0.00292 -0.02487  0.00267 -0.02675  0.00162
    H25      X     0.01893 -0.01980  0.01925 -0.00464  0.01801 -0.00070
    H25      Y    -0.01594  0.00344 -0.00556 -0.06510 -0.05559  0.03607
    H25      Z    -0.04368  0.04922 -0.03682  0.00582 -0.01292 -0.01005
    H26      X    -0.03831  0.07050  0.02056  0.06161 -0.00456  0.04044
    H26      Y    -0.01266  0.02148 -0.03392  0.00711 -0.00034 -0.01454
    H26      Z    -0.00530 -0.00656  0.05888  0.03208 -0.00736  0.04419
    C27      X     0.03296 -0.00580 -0.00500  0.02228  0.00022 -0.00237
    C27      Y     0.00706 -0.01652 -0.00583  0.00944 -0.01847  0.00245
    C27      Z    -0.01171  0.01425 -0.01676  0.01417  0.00233 -0.00635
    H28      X     0.07361 -0.01700 -0.00789  0.04372 -0.00075 -0.00780
    H28      Y     0.01196 -0.01303 -0.00427 -0.00835 -0.02528  0.00688
    H28      Z    -0.03847  0.01687 -0.01666  0.01991  0.00962 -0.00778
    H29      X     0.02813 -0.00020 -0.00950  0.04064  0.00845 -0.01469
    H29      Y     0.00849 -0.02082 -0.00888  0.03404 -0.01050 -0.00521
    H29      Z    -0.00620  0.00581 -0.01535  0.01809  0.00146 -0.00172
    C30      X    -0.00558  0.00640 -0.00386  0.00054 -0.00185  0.00415
    C30      Y    -0.03852 -0.01304 -0.00070 -0.02103 -0.02393  0.02054
    C30      Z    -0.02839  0.02873 -0.02049  0.01062  0.00439 -0.01430
    H31      X    -0.04423  0.01904 -0.00518 -0.01774 -0.00488  0.01005
    H31      Y    -0.05282 -0.01806  0.00041 -0.00645 -0.01554  0.01878
    H31      Z    -0.00059  0.02644 -0.02064  0.00861  0.00012 -0.01565
    H32      X    -0.00173  0.00679 -0.00712  0.02039  0.00562 -0.00621
    H32      Y    -0.06667 -0.00999  0.00201 -0.04080 -0.02805  0.03235
    H32      Z    -0.06912  0.03455 -0.02152  0.01225  0.01079 -0.01290
    C33      X     0.00116  0.02943  0.01859  0.01298 -0.00005  0.01370
    C33      Y    -0.01354  0.02121 -0.04033  0.00602 -0.00040 -0.01448
    C33      Z    -0.01181 -0.00396 -0.00156  0.01027 -0.00084  0.03641
    H34      X     0.01705  0.02338  0.00385 -0.00088 -0.00112  0.00703
    H34      Y    -0.01949  0.02733 -0.02477  0.01752 -0.00086 -0.01128
    H34      Z    -0.01913 -0.00876 -0.01412  0.00428  0.00137  0.03810
    H35      X    -0.00884  0.02528  0.03898  0.02389 -0.00336  0.02825
    H35      Y    -0.02156  0.02193 -0.06544 -0.00357  0.00534 -0.02109
    H35      Z    -0.01446 -0.00533  0.00643  0.01437 -0.00230  0.04157
    C36      X     0.00479  0.02933  0.01564  0.01051 -0.00028  0.01185
    C36      Y     0.00728  0.00750 -0.05118 -0.00697 -0.00720 -0.01036
    C36      Z     0.00049  0.00418 -0.03587 -0.00617  0.00504  0.01538
    H37      X     0.01477  0.01906  0.01175  0.00535 -0.00631  0.01943
    H37      Y     0.01063  0.00607 -0.06616 -0.01362 -0.00803 -0.01245
    H37      Z     0.00093  0.00880 -0.07106 -0.01907  0.00791  0.00378
    H38      X    -0.01051  0.03100  0.03533  0.02176  0.00189  0.01566
    H38      Y     0.01303  0.00470 -0.07459 -0.01759 -0.00868 -0.01355
    H38      Z     0.00700  0.00621 -0.02372 -0.00279  0.00498  0.01591
    C39      X     0.01874  0.04844 -0.02602 -0.00343  0.00612 -0.00271
    C39      Y     0.04168  0.01959 -0.04244  0.01661 -0.04005  0.05396
    C39      Z     0.02232  0.02675 -0.08747 -0.01904  0.00548  0.01859
    H40      X     0.03044  0.06321 -0.06234 -0.01295  0.00824 -0.00121
    H40      Y     0.05699  0.01269 -0.01750  0.02231 -0.05489  0.08222
    H40      Z     0.02602  0.02856 -0.09135 -0.02017  0.00430  0.02186
    H41      X     0.02803  0.05637 -0.03826  0.00567 -0.00921  0.02350
    H41      Y     0.04510  0.02950 -0.06518  0.01876 -0.04487  0.06227
    H41      Z     0.01743  0.04219 -0.13217 -0.02714  0.01589  0.00111
    H42      X     0.00064  0.02871  0.01575 -0.00500  0.01960 -0.02959
    H42      Y     0.04154  0.03089 -0.06947  0.01781 -0.04147  0.05574
    H42      Z     0.03804  0.02602 -0.08095 -0.01952 -0.00380  0.03874
    C43      X    -0.00831  0.05741  0.00853  0.01912  0.01096 -0.00767
    C43      Y    -0.04785  0.06445 -0.00453  0.06517 -0.00755  0.01623
    C43      Z    -0.03915 -0.01823  0.05317  0.06706 -0.03231  0.11451
    H44      X    -0.01698  0.09175  0.01022  0.03205  0.01836 -0.01540
    H44      Y    -0.05592  0.06039  0.00255  0.08286 -0.01253  0.01837
    H44      Z    -0.04901 -0.04378  0.06271  0.09047 -0.04453  0.12037
    H45      X    -0.02551  0.04562  0.01491  0.03883 -0.00425  0.03387
    H45      Y    -0.05397  0.10493 -0.01020  0.06019 -0.00013  0.02990
    H45      Z    -0.04950 -0.02504  0.05677  0.07875 -0.04133  0.13941
    H46      X     0.01948  0.03876  0.00003 -0.01411  0.02137 -0.04698
    H46      Y    -0.05877  0.06203  0.00361  0.08888 -0.01366  0.01991
    H46      Z    -0.04037 -0.00354  0.04661  0.05326 -0.03000  0.13214
    C47      X    -0.01888  0.02076 -0.01310 -0.06197 -0.05298  0.05793
    C47      Y    -0.04691  0.00008 -0.01026 -0.07202 -0.06560  0.06187
    C47      Z    -0.01527  0.06545 -0.03976 -0.00012 -0.02077 -0.02348
    H48      X    -0.01317  0.00982 -0.00442 -0.07882 -0.05545  0.06316
    H48      Y    -0.03757  0.00893 -0.01215 -0.09145 -0.08178  0.06329
    H48      Z    -0.01181  0.08038 -0.04733 -0.00393 -0.03202 -0.02574
    H49      X    -0.02267  0.03008 -0.02017 -0.04732 -0.05004  0.05327
    H49      Y    -0.06555  0.00180 -0.01582 -0.09224 -0.08416  0.09293
    H49      Z    -0.03526  0.07840 -0.05303  0.00130 -0.03246 -0.00384
    H50      X    -0.03509  0.03972 -0.02785 -0.08388 -0.08388  0.08536
    H50      Y    -0.05256 -0.00878 -0.00791 -0.05146 -0.04651  0.05794
    H50      Z     0.00557  0.05800 -0.02894 -0.00167 -0.01254 -0.04372
    C51      X     0.08063 -0.01921 -0.02440  0.00287 -0.05162  0.02763
    C51      Y     0.08646 -0.02482 -0.03097  0.06105 -0.02625 -0.03124
    C51      Z     0.06341  0.00212 -0.03820  0.00589 -0.04803  0.01641
    H52      X     0.07403 -0.02399 -0.01019 -0.02848 -0.06292  0.05260
    H52      Y     0.10749 -0.02808 -0.04352  0.08003 -0.03062 -0.04407
    H52      Z     0.09250 -0.00970 -0.04049 -0.00270 -0.07138  0.02750
    H53      X     0.08311 -0.01462 -0.03671  0.03290 -0.03824  0.00297
    H53      Y     0.10118 -0.02111 -0.05335  0.09116 -0.03106 -0.04499
    H53      Z     0.08138  0.00103 -0.05288  0.00659 -0.07407  0.03167
    H54      X     0.12400 -0.02626 -0.05045  0.01975 -0.08428  0.03245
    H54      Y     0.07800 -0.03151 -0.01122  0.03544 -0.02234 -0.02109
    H54      Z     0.04010  0.01165 -0.03466  0.01268 -0.02856  0.00590
    H55      X     0.04537 -0.00327  0.02711 -0.03570  0.00359  0.03342
    H55      Y     0.04190 -0.05031  0.05382 -0.01750  0.00323  0.02133
    H55      Z     0.01047  0.03505 -0.01142  0.01308  0.02255 -0.02922
    H56      X     0.06118 -0.03270  0.04603 -0.05252 -0.00005  0.05751
    H56      Y    -0.00252  0.00309  0.01017  0.01073  0.00519 -0.02728
    H56      Z    -0.00496  0.01501 -0.01546 -0.00173  0.01043 -0.02168
    H57      X     0.01261  0.02635  0.00276 -0.01922  0.01002 -0.00921
    H57      Y    -0.01160  0.01441  0.00152  0.01851  0.01284 -0.05278
    H57      Z     0.02684 -0.06420  0.04240 -0.03609  0.00440  0.00452
    H58      X    -0.00193  0.07787 -0.02017  0.01035  0.01182 -0.00849
    H58      Y    -0.00213 -0.01805  0.03182  0.00906  0.00037 -0.01338
    H58      Z     0.01588 -0.02807  0.02273 -0.01720  0.00833 -0.00522
  
  vibration #           13       14       15       16       17       18
                  -------- -------- -------- -------- -------- --------
  frequencies       143.53   154.77   165.89   189.57   200.02   213.37
  intensities         0.12     4.04     1.56     2.17     3.56     0.19
  reduc. mass         1.03     3.71     6.53     1.32     1.25     0.60
  force const         0.01     0.05     0.11     0.03     0.03     0.02
    Rh1      X     0.00678  0.02660  0.00782  0.02784 -0.01712  0.00067
    Rh1      Y     0.00928 -0.01239  0.03747 -0.00358  0.02180 -0.00982
    Rh1      Z    -0.01576 -0.02661 -0.03021  0.00258 -0.00124  0.00134
    O2       X    -0.01037  0.01385 -0.01820 -0.05723  0.03005  0.00846
    O2       Y    -0.00590  0.02761 -0.03843 -0.04220  0.05520  0.01169
    O2       Z    -0.01635 -0.01105 -0.03688 -0.02515  0.00645  0.00604
    C3       X    -0.01316 -0.00408 -0.01818 -0.05825  0.03907  0.01166
    C3       Y    -0.01895  0.02319 -0.06122  0.01311 -0.02450 -0.00177
    C3       Z    -0.01171  0.02334 -0.03849 -0.02261 -0.01102  0.00064
    N4       X    -0.00959  0.01879 -0.01891 -0.05626  0.02735  0.00653
    N4       Y    -0.00982  0.01803 -0.00781  0.01831 -0.03879 -0.00981
    N4       Z    -0.00536  0.05607 -0.03287 -0.01938 -0.02864 -0.00684
    C5       X     0.00111  0.04977 -0.00689 -0.04042  0.00074 -0.00696
    C5       Y     0.00393  0.04290  0.02762 -0.03298  0.03313  0.00482
    C5       Z    -0.00347  0.06294 -0.02857 -0.03114 -0.01595 -0.00456
    C6       X     0.00936  0.03744  0.00726 -0.00961 -0.02532 -0.02439
    C6       Y     0.00979  0.02694  0.04022 -0.02506  0.04496  0.00386
    C6       Z     0.00021  0.06097 -0.01235 -0.06303  0.04455  0.01208
    C7       X     0.00552 -0.01039 -0.00855 -0.01204 -0.00776 -0.00647
    C7       Y     0.00540  0.01958  0.01627 -0.02130  0.03105  0.00806
    C7       Z    -0.00024  0.01738 -0.01864 -0.01081 -0.02143 -0.00638
    N8       X     0.01045 -0.09057 -0.00978  0.00585  0.00174 -0.00464
    N8       Y     0.00355  0.00994 -0.01991  0.02375 -0.03858 -0.00938
    N8       Z     0.00901 -0.08466  0.02418 -0.04026  0.07738  0.01776
    H9       X     0.00642 -0.02451 -0.00239  0.02278 -0.03876 -0.04041
    H9       Y     0.00452  0.01324  0.02497  0.00119  0.00364 -0.01120
    H9       Z     0.00580  0.06315  0.00233 -0.08499  0.08706  0.02502
    H10      X     0.02468  0.04923  0.02126 -0.00896 -0.02868 -0.02820
    H10      Y     0.01665  0.04280  0.06060 -0.05991  0.10343  0.02545
    H10      Z     0.00680  0.07007 -0.00150 -0.07441  0.06290  0.01852
    H11      X    -0.01218  0.00556 -0.02015 -0.06299  0.03964  0.01134
    H11      Y    -0.02260  0.01492 -0.03485  0.08199 -0.11576 -0.01850
    H11      Z    -0.00149  0.07960 -0.03227 -0.00273 -0.05606 -0.01623
    H12      X    -0.01721 -0.03589 -0.01552 -0.06133  0.05522  0.01694
    H12      Y    -0.03854  0.02327 -0.12407  0.05779 -0.08317 -0.00739
    H12      Z    -0.01256  0.02661 -0.04278 -0.01957 -0.01643 -0.00028
    P13      X    -0.02501 -0.01744  0.00173  0.01794  0.01380 -0.00578
    P13      Y     0.03036 -0.02139 -0.02532  0.02611 -0.00186 -0.02177
    P13      Z    -0.01374 -0.00896  0.00340  0.02187 -0.00216 -0.01183
    P14      X     0.02439 -0.01842  0.00765  0.01533 -0.00331  0.01287
    P14      Y    -0.02028 -0.01390  0.02130 -0.00088 -0.02048  0.01094
    P14      Z     0.03560 -0.01519  0.02669 -0.00041 -0.02736  0.01972
    C15      X    -0.00325 -0.03938  0.01014 -0.05029 -0.03524 -0.01439
    C15      Y     0.00821 -0.01091 -0.03018  0.06512  0.02615 -0.02226
    C15      Z     0.02952 -0.00721  0.01458  0.06203  0.00101  0.02429
    C16      X     0.02455 -0.06361  0.02231 -0.06853 -0.08539  0.02555
    C16      Y     0.01529 -0.02700 -0.00879  0.02559 -0.01558 -0.00003
    C16      Z     0.02464 -0.00521  0.03296  0.01203 -0.01542  0.02154
    H17      X     0.00573  0.03481  0.00615  0.01836 -0.01585 -0.00130
    H17      Y     0.00607 -0.00086  0.03820 -0.02970  0.02358 -0.02506
    H17      Z    -0.01268 -0.01797 -0.02879 -0.00352 -0.00020 -0.00273
    H18      X     0.03914  0.02295  0.01834 -0.03101  0.00812 -0.03718
    H18      Y     0.00851 -0.01542  0.03693 -0.00710  0.02249 -0.01075
    H18      Z    -0.02531 -0.02681 -0.05080  0.00720  0.01149 -0.00553
    C19      X    -0.01321 -0.00398  0.00763  0.00544  0.01400  0.02455
    C19      Y     0.04216 -0.00470 -0.02500  0.01127 -0.00392  0.01862
    C19      Z    -0.03768  0.00319  0.02983  0.01784  0.00900  0.02978
    C20      X    -0.02134 -0.00276  0.01053  0.00773  0.00992 -0.01789
    C20      Y     0.02454 -0.00653 -0.01711 -0.00514 -0.00830 -0.04478
    C20      Z    -0.01187  0.01313  0.02739  0.01893 -0.00938 -0.02064
    C21      X     0.01571 -0.00937 -0.00138  0.01535  0.01185 -0.00042
    C21      Y    -0.03916 -0.01389 -0.00294  0.00875 -0.01787  0.00974
    C21      Z     0.02438  0.00128  0.00590  0.00558 -0.00043 -0.00747
    C22      X     0.00951 -0.00963  0.00046  0.00283  0.00014  0.00800
    C22      Y    -0.05396  0.00709  0.00026 -0.01460 -0.02731  0.01277
    C22      Z     0.03966  0.00206  0.00050  0.00032 -0.00851  0.00918
    H23      X    -0.00083  0.00761  0.02526 -0.03552  0.00041  0.00396
    H23      Y     0.03653 -0.01648 -0.03315  0.02965 -0.00357 -0.01861
    H23      Z    -0.03688  0.01335  0.02980  0.01724  0.01765  0.10370
    H24      X     0.01777 -0.03615  0.02974 -0.02016 -0.03297  0.02845
    H24      Y    -0.06166  0.02962 -0.02703 -0.01675 -0.00862  0.00080
    H24      Z     0.03914  0.00670 -0.00261  0.02049  0.00446  0.00160
    H25      X     0.02937 -0.00600  0.02187  0.03041  0.01324  0.00375
    H25      Y    -0.03556 -0.02367  0.00131 -0.00359 -0.03497  0.02326
    H25      Z     0.00935  0.00729 -0.01755  0.00366  0.01372 -0.02290
    H26      X    -0.01459  0.02971  0.03020  0.01544  0.01054  0.02785
    H26      Y     0.02010 -0.00675 -0.01019 -0.02061 -0.01231 -0.08386
    H26      Z    -0.00920 -0.00245  0.00803  0.03675 -0.00397  0.01328
    C27      X    -0.00020  0.00367 -0.00376 -0.01481 -0.00615  0.00760
    C27      Y    -0.04739  0.00026 -0.00461 -0.01140 -0.02097  0.00958
    C27      Z     0.03991  0.00551 -0.00947 -0.01676 -0.00859  0.00684
    H28      X     0.00472  0.00880 -0.00320 -0.04249 -0.02671  0.02788
    H28      Y    -0.05016 -0.00712  0.00498  0.01316 -0.01211  0.00173
    H28      Z     0.04008  0.00990 -0.01902 -0.02585 -0.00628  0.00368
    H29      X    -0.00282  0.00991 -0.00563 -0.02117 -0.00255  0.00187
    H29      Y    -0.04454  0.00969 -0.01455 -0.04013 -0.03190  0.01894
    H29      Z     0.04472  0.00785 -0.01611 -0.03470 -0.02045  0.01942
    C30      X    -0.00242 -0.00046 -0.00677  0.01341  0.01921 -0.01677
    C30      Y    -0.04651 -0.00387 -0.01601  0.01180 -0.00103 -0.00668
    C30      Z     0.02881  0.00479 -0.00364  0.00732  0.00776 -0.01086
    H31      X    -0.01168 -0.00204 -0.01352  0.04269  0.04524 -0.04270
    H31      Y    -0.05329  0.00255 -0.02910  0.01094  0.00959 -0.01964
    H31      Z     0.03787  0.00099  0.00870 -0.00542 -0.01152  0.01009
    H32      X    -0.01283  0.00490 -0.00857  0.00881  0.01917 -0.02039
    H32      Y    -0.04447 -0.00653 -0.02404  0.02823  0.01568 -0.02120
    H32      Z     0.01431  0.00985 -0.02003  0.02690  0.03585 -0.04167
    C33      X    -0.00417  0.00501  0.01044  0.00253  0.00299 -0.00994
    C33      Y     0.02013 -0.00134 -0.00709 -0.01808 -0.00843 -0.06655
    C33      Z    -0.02768  0.01675  0.04264 -0.00134 -0.00912 -0.06956
    H34      X     0.00281  0.00419 -0.00293  0.01950  0.01875  0.11871
    H34      Y     0.01933 -0.00648 -0.00994 -0.01543 -0.01208 -0.09096
    H34      Z    -0.03457  0.02761  0.06444 -0.02682 -0.02095 -0.17731
    H35      X     0.00001  0.01376  0.02274 -0.01622 -0.01296 -0.11609
    H35      Y     0.00533  0.00532  0.01522 -0.04034 -0.01593 -0.16275
    H35      Z    -0.02540  0.01918  0.04523 -0.00568 -0.01366 -0.09653
    C36      X    -0.00064  0.00537  0.00413  0.00654  0.00626  0.02229
    C36      Y     0.03603  0.00576 -0.01919  0.00261  0.01034  0.10908
    C36      Z    -0.03581  0.00679  0.03081  0.01626  0.00880  0.03745
    H37      X     0.01115  0.01406  0.00045  0.01594  0.01748  0.13700
    H37      Y     0.03996  0.01116 -0.02121  0.00350  0.01852  0.18456
    H37      Z    -0.03573  0.01336  0.02892  0.01109  0.02072  0.13673
    H38      X    -0.00702  0.00452  0.01475 -0.00729 -0.00855 -0.10508
    H38      Y     0.04245  0.01435 -0.02329  0.00583  0.02425  0.23645
    H38      Z    -0.03823 -0.00353  0.02631  0.02477  0.00455 -0.00925
    C39      X    -0.02156 -0.00702  0.01733  0.00459  0.01873  0.01353
    C39      Y     0.08573  0.01885 -0.01963 -0.05957 -0.04460 -0.02580
    C39      Z    -0.06624 -0.00402  0.07787 -0.00491  0.01880 -0.03678
    H40      X    -0.05044 -0.01443  0.05999 -0.00745  0.03362 -0.03334
    H40      Y     0.12910  0.01032 -0.03765 -0.10566 -0.12518 -0.19789
    H40      Z    -0.06694 -0.00613  0.08385 -0.01197  0.01290 -0.06411
    H41      X     0.00914  0.01173  0.00884 -0.03164 -0.00192  0.02107
    H41      Y     0.08641  0.03248 -0.01110 -0.07109 -0.03012  0.02271
    H41      Z    -0.11278  0.00494  0.11557  0.01971  0.09229  0.08811
    H42      X    -0.02847 -0.02113 -0.00844  0.05015  0.02697  0.04442
    H42      Y     0.07702  0.03396 -0.00834 -0.06064 -0.01402  0.05502
    H42      Z    -0.04705 -0.01563  0.08242 -0.04206 -0.03612 -0.19138
    C43      X    -0.02606 -0.01275  0.00138  0.00957  0.01519 -0.01709
    C43      Y     0.02950  0.02124 -0.01618  0.01860  0.00817  0.05363
    C43      Z     0.01128  0.07012  0.07458  0.02297 -0.02342  0.01738
    H44      X    -0.03271 -0.01120 -0.01505  0.01836  0.03610  0.03545
    H44      Y     0.03779  0.01097 -0.03121  0.04462 -0.00444  0.08385
    H44      Z     0.02894  0.05009  0.05614  0.06241 -0.05485  0.04286
    H45      X    -0.00999  0.02876  0.03817  0.00850  0.00629  0.00834
    H45      Y     0.01757  0.07015  0.01536 -0.01722  0.04921  0.07789
    H45      Z     0.02075  0.09536  0.09696  0.02205 -0.02838  0.03282
    H46      X    -0.03836 -0.06323 -0.02563  0.00320  0.00343 -0.09710
    H46      Y     0.03948  0.01022 -0.03370  0.04919 -0.00370  0.09448
    H46      Z     0.00479  0.11566  0.11493 -0.01656  0.00108  0.00864
    C47      X    -0.00082 -0.01820 -0.03708 -0.01209  0.00792 -0.00169
    C47      Y    -0.05687 -0.01665 -0.03673  0.00100 -0.01089  0.01105
    C47      Z     0.02709 -0.00760  0.00802 -0.02392 -0.02154 -0.01055
    H48      X     0.00817 -0.02691 -0.01944  0.00802 -0.01710  0.03759
    H48      Y    -0.04459 -0.03123 -0.01941 -0.00507 -0.04949  0.04233
    H48      Z     0.03059 -0.01349  0.00934 -0.04308 -0.03473 -0.01322
    H49      X    -0.00755 -0.01171 -0.05098 -0.02959  0.02818 -0.03392
    H49      Y    -0.07345 -0.01638 -0.06892 -0.00539  0.00081  0.01134
    H49      Z     0.00532  0.00064 -0.03548 -0.05070  0.01311 -0.05023
    H50      X    -0.01510 -0.02332 -0.06960 -0.04106  0.00866 -0.00957
    H50      Y    -0.06576 -0.00285 -0.04929  0.00721  0.02413 -0.01673
    H50      Z     0.04943 -0.01736  0.05013 -0.00590 -0.05921  0.02634
    C51      X     0.00203  0.02538 -0.04046  0.03956  0.05634 -0.02628
    C51      Y    -0.09013  0.02766 -0.00311 -0.00238 -0.04992  0.02582
    C51      Z     0.05243  0.02482 -0.03705  0.02873  0.05664 -0.03064
    H52      X     0.04741  0.00933 -0.04395  0.07692  0.12458 -0.05936
    H52      Y    -0.11629  0.04321 -0.00807  0.00106 -0.06844  0.03595
    H52      Z     0.06746  0.03039 -0.05007  0.08362  0.11537 -0.05704
    H53      X    -0.04187  0.03791 -0.03442  0.00049 -0.01325  0.00771
    H53      Y    -0.12666  0.05177 -0.01776 -0.03252 -0.08382  0.03635
    H53      Z     0.06254  0.04188 -0.06689  0.04099  0.10743 -0.06422
    H54      X    -0.00999  0.05605 -0.07477  0.06748  0.09880 -0.05385
    H54      Y    -0.06061  0.00671  0.01102  0.03405 -0.02108  0.01927
    H54      Z     0.03933  0.01879 -0.02358 -0.01629  0.00699 -0.00716
    H55      X     0.02910 -0.08120  0.02745 -0.10325 -0.12013  0.03049
    H55      Y     0.04150 -0.06631  0.00137 -0.01525 -0.09146  0.03479
    H55      Z     0.02195 -0.02312  0.03966 -0.03811 -0.05238  0.01785
    H56      X     0.04160 -0.09723  0.03922 -0.11592 -0.15422  0.05757
    H56      Y     0.00545 -0.00675 -0.02047  0.05505  0.02678 -0.02084
    H56      Z     0.00327  0.01976  0.04292  0.03485  0.02272  0.02060
    H57      X     0.00279 -0.03745  0.00664 -0.01544 -0.02186 -0.00363
    H57      Y    -0.00002  0.00856 -0.03349  0.10890  0.06719 -0.02506
    H57      Z     0.04658 -0.00873  0.00784  0.12326  0.01620  0.04896
    H58      X    -0.02209 -0.04235  0.01870 -0.12456 -0.06013 -0.03908
    H58      Y    -0.01157 -0.00849 -0.04273  0.07795  0.03919 -0.03843
    H58      Z     0.03529 -0.00732  0.01562  0.06966  0.00191  0.03042
  
  vibration #           19       20       21       22       23       24
                  -------- -------- -------- -------- -------- --------
  frequencies       214.97   227.01   235.26   247.23   250.59   251.90
  intensities         0.23     2.36     3.99     0.78     0.81     4.24
  reduc. mass         0.62     0.55     3.62     0.40     0.21     2.82
  force const         0.02     0.02     0.12     0.01     0.01     0.11
    Rh1      X     0.00476 -0.01952  0.02967 -0.00431 -0.01085  0.03266
    Rh1      Y    -0.00781  0.01333 -0.02832 -0.01955 -0.01138  0.01459
    Rh1      Z     0.00529 -0.00276 -0.00742 -0.00901 -0.00118  0.01685
    O2       X     0.00543  0.00143  0.00097  0.01729  0.00535 -0.00686
    O2       Y     0.00771 -0.02345  0.04412  0.01944 -0.01291 -0.01002
    O2       Z     0.01372 -0.00637 -0.01627  0.01335 -0.00627  0.03900
    C3       X     0.00970 -0.00549  0.00419  0.01863  0.00126  0.00410
    C3       Y    -0.00239  0.00058  0.00445  0.01324  0.02073  0.00476
    C3       Z     0.00579  0.00588 -0.01935  0.01047  0.00291  0.01834
    N4       X     0.00318  0.00560 -0.00317  0.01594  0.00749 -0.01498
    N4       Y    -0.00914  0.02114 -0.03118 -0.01200  0.01134 -0.00122
    N4       Z    -0.00432  0.02299 -0.03003  0.00326  0.01140 -0.01023
    C5       X    -0.01137  0.02992 -0.02502 -0.00122  0.01431 -0.05271
    C5       Y    -0.00292 -0.00542  0.02191  0.00008 -0.00998 -0.02695
    C5       Z    -0.00385  0.02028 -0.02240  0.00652  0.00844 -0.01789
    C6       X    -0.01873  0.05512 -0.07627 -0.02582  0.00754 -0.03829
    C6       Y    -0.00101 -0.01190  0.02419 -0.00559 -0.01576 -0.00891
    C6       Z     0.00530 -0.01520  0.03455  0.02129  0.00514 -0.01339
    C7       X    -0.00802  0.01940 -0.02308 -0.00472  0.01399 -0.02788
    C7       Y     0.00107 -0.01775  0.03480  0.00618 -0.01251 -0.00764
    C7       Z    -0.00375  0.01859 -0.02819 -0.00253  0.00804 -0.00741
    N8       X    -0.00121  0.00258 -0.02320 -0.00862  0.01237  0.00384
    N8       Y    -0.00807  0.01461 -0.02640 -0.00385 -0.00029  0.01315
    N8       Z     0.01738 -0.04559  0.04736  0.00439 -0.00987  0.01319
    H9       X    -0.02480  0.07646 -0.12590 -0.04609  0.00664 -0.01141
    H9       Y    -0.00933  0.01781 -0.02589 -0.02016 -0.01618 -0.00929
    H9       Z     0.01303 -0.04309  0.07880  0.03286  0.00525 -0.00734
    H10      X    -0.01882  0.06044 -0.08594 -0.02876  0.00241 -0.03599
    H10      Y     0.01112 -0.05640  0.09711  0.01450 -0.01143 -0.00445
    H10      Z     0.00941 -0.02871  0.05639  0.02721  0.00567 -0.01133
[...]
    H54      Z    -0.41166 -0.01802 -0.01803 -0.02160 -0.04601  0.01115
    H55      X     0.03917  0.04403  0.10907  0.07444  0.28252 -0.13230
    H55      Y    -0.00709 -0.00946 -0.02353 -0.01604 -0.06160  0.02914
    H55      Z    -0.02229 -0.02369 -0.05836 -0.03977 -0.15010  0.06972
    H56      X     0.01129  0.02443  0.05587  0.03744  0.13761 -0.06087
    H56      Y     0.01877  0.03784  0.08662  0.05795  0.21341 -0.09483
    H56      Z     0.00166  0.00297  0.00645  0.00423  0.01566 -0.00694
    H57      X    -0.11680  0.04057  0.13986  0.10254  0.46377 -0.28620
    H57      Y     0.01634 -0.00590 -0.02101 -0.01609 -0.06764  0.04210
    H57      Z     0.05251 -0.01835 -0.06197 -0.04566 -0.20635  0.12910
    H58      X     0.01604 -0.00530 -0.01583 -0.01367 -0.05584  0.03023
    H58      Y     0.02022 -0.00629 -0.01966 -0.01684 -0.06963  0.03551
    H58      Z     0.11456 -0.03626 -0.11410 -0.09509 -0.39486  0.20398
  
  vibration #          163      164      165      166      167      168
                  -------- -------- -------- -------- -------- --------
  frequencies      3137.74  3141.55  3152.68  3166.28  3266.17  3589.14
  intensities         5.22     7.43     8.21     0.53     1.00    88.10
  reduc. mass         0.61     0.60     0.68     0.54     0.59     0.94
  force const         3.53     3.50     3.96     3.20     3.73     7.13
    Rh1      X     0.00000  0.00000  0.00001 -0.00003 -0.00003 -0.00000
    Rh1      Y     0.00000  0.00000 -0.00000  0.00005 -0.00002  0.00001
    Rh1      Z     0.00000  0.00000  0.00000 -0.00002  0.00003 -0.00001
    O2       X    -0.00001 -0.00021 -0.00001  0.00004  0.00003  0.00137
    O2       Y     0.00000 -0.00020  0.00000 -0.00004  0.00000  0.00008
    O2       Z    -0.00000  0.00003 -0.00001  0.00010  0.00005  0.00037
    C3       X     0.00003 -0.00010  0.00003 -0.00016 -0.00011  0.00084
    C3       Y    -0.00001  0.00003 -0.00000  0.00012 -0.00017  0.00002
    C3       Z    -0.00002 -0.00072  0.00005 -0.00070  0.00023 -0.00243
    N4       X    -0.00002 -0.00002  0.00002 -0.00010  0.00012 -0.06323
    N4       Y     0.00001  0.00001 -0.00001 -0.00023 -0.00007  0.00253
    N4       Z     0.00000  0.00002  0.00000  0.00011  0.00040 -0.03264
    C5       X    -0.00000  0.00002 -0.00012  0.00171  0.00057  0.00035
    C5       Y    -0.00003  0.00001  0.00016 -0.00323 -0.00082 -0.00033
    C5       Z     0.00000 -0.00001  0.00005  0.00166 -0.00036  0.00068
    C6       X     0.00003  0.00002 -0.00007  0.00039  0.02264  0.00004
    C6       Y    -0.00001  0.00001 -0.00132  0.06569 -0.01131 -0.00020
    C6       Z     0.00000 -0.00000  0.00033  0.00156 -0.09038  0.00034
    C7       X     0.00011 -0.00000 -0.00012  0.00027 -0.00020  0.00005
    C7       Y     0.00010 -0.00000 -0.00003 -0.00022  0.00022  0.00012
    C7       Z    -0.00001  0.00000 -0.00028 -0.00025 -0.00005 -0.00005
    N8       X     0.00004  0.00000 -0.00006 -0.00017 -0.00005 -0.00002
    N8       Y     0.00020 -0.00000 -0.00005  0.00015  0.00001 -0.00006
    N8       Z     0.00002  0.00000 -0.00020  0.00013  0.00006 -0.00005
    H9       X    -0.00008  0.00001 -0.00230  0.11430 -0.07323 -0.00037
    H9       Y     0.00001 -0.00008  0.01080 -0.57456  0.38419  0.00037
    H9       Z     0.00002 -0.00009  0.01078 -0.54202  0.35169 -0.00035
    H10      X    -0.00003 -0.00012  0.00324 -0.13945 -0.19709 -0.00007
    H10      Y    -0.00003 -0.00007  0.00391 -0.15998 -0.23834 -0.00044
    H10      Z    -0.00001  0.00022 -0.01326  0.50771  0.71758  0.00026
    H11      X     0.00001  0.00008 -0.00012  0.00063 -0.00002  0.84397
    H11      Y    -0.00011  0.00014  0.00003  0.00101  0.00019 -0.03013
    H11      Z    -0.00005 -0.00005  0.00005 -0.00142  0.00067  0.45648
    H12      X     0.00001  0.00066 -0.00007  0.00071 -0.00013 -0.00137
    H12      Y    -0.00001 -0.00046  0.00006 -0.00035  0.00010 -0.00042
    H12      Z     0.00012  0.00772 -0.00060  0.00606 -0.00102  0.01059
    P13      X     0.00000 -0.00002 -0.00008 -0.00001 -0.00001 -0.00002
    P13      Y    -0.00000 -0.00001  0.00001  0.00001  0.00001  0.00000
    P13      Z     0.00000 -0.00001  0.00002  0.00002  0.00001 -0.00001
    P14      X     0.00009  0.00007 -0.00000 -0.00001  0.00001  0.00001
    P14      Y    -0.00007 -0.00002  0.00000 -0.00003  0.00001 -0.00002
    P14      Z    -0.00002 -0.00006  0.00002  0.00003 -0.00004 -0.00001
    C15      X    -0.00038 -0.00068 -0.00051 -0.00000 -0.00000  0.00000
    C15      Y     0.00008  0.00020  0.00013  0.00001  0.00001 -0.00000
    C15      Z     0.00041  0.00072  0.00063  0.00004  0.00000  0.00001
    C16      X    -0.00168 -0.00081 -0.00121 -0.00013 -0.00000  0.00000
    C16      Y    -0.00003 -0.00025 -0.00021 -0.00009 -0.00002  0.00001
    C16      Z     0.00085  0.00026  0.00045  0.00005  0.00000 -0.00000
    H17      X    -0.00012  0.00055  0.00000  0.00063  0.00040  0.00011
    H17      Y     0.00010  0.00004  0.00004  0.00027 -0.00006 -0.00008
    H17      Z     0.00003 -0.00025 -0.00017 -0.00003  0.00015 -0.00040
    H18      X    -0.00011 -0.00006  0.00011  0.00347 -0.00161 -0.00027
    H18      Y    -0.00003 -0.00003  0.00008 -0.00874  0.00117 -0.00021
    H18      Z     0.00002 -0.00001 -0.00006 -0.00001  0.00124 -0.00039
    C19      X    -0.00000 -0.00001  0.00002  0.00000  0.00000 -0.00000
    C19      Y    -0.00000 -0.00003  0.00020 -0.00003 -0.00004  0.00001
    C19      Z    -0.00000 -0.00002  0.00003 -0.00003 -0.00002  0.00001
    C20      X     0.00004  0.00001  0.00156  0.00002  0.00000  0.00003
    C20      Y     0.00007  0.00000  0.00292  0.00010  0.00005  0.00000
    C20      Z     0.00004  0.00000  0.00178  0.00008  0.00004  0.00000
    C21      X     0.00009 -0.00396 -0.00001  0.00000 -0.00000 -0.00001
    C21      Y     0.00010 -0.00389 -0.00001 -0.00004  0.00002 -0.00001
    C21      Z     0.00000 -0.00454 -0.00001 -0.00004  0.00002 -0.00001
    C22      X     0.00204 -0.00008 -0.00002  0.00002 -0.00002 -0.00004
    C22      Y     0.00271 -0.00007 -0.00004  0.00001 -0.00001 -0.00002
    C22      Z     0.00302 -0.00017 -0.00002  0.00004 -0.00002 -0.00004
    H23      X    -0.00000  0.00019 -0.00058  0.00018  0.00021  0.00000
    H23      Y    -0.00003  0.00044 -0.00160  0.00032  0.00040  0.00002
    H23      Z    -0.00001  0.00023 -0.00098  0.00024  0.00030 -0.00002
    H24      X    -0.02520  0.00147  0.00017 -0.00049  0.00024  0.00033
    H24      Y    -0.02592  0.00124  0.00023 -0.00043  0.00018  0.00004
    H24      Z    -0.03479  0.00166  0.00024 -0.00062  0.00031  0.00033
    H25      X    -0.00085  0.04050  0.00005 -0.00007  0.00005  0.00007
    H25      Y    -0.00073  0.04761  0.00005 -0.00000  0.00002  0.00011
    H25      Z    -0.00071  0.05193  0.00002  0.00024 -0.00007  0.00009
    H26      X    -0.00026  0.00001 -0.01298 -0.00024 -0.00002 -0.00008
    H26      Y    -0.00070  0.00005 -0.03180 -0.00091 -0.00034 -0.00003
    H26      Z    -0.00050  0.00006 -0.02245 -0.00074 -0.00035  0.00013
    C27      X     0.00100 -0.00021  0.00000 -0.00000  0.00000  0.00001
    C27      Y     0.00024 -0.00014 -0.00001  0.00002 -0.00001 -0.00001
    C27      Z     0.00194 -0.00042 -0.00000 -0.00001 -0.00000  0.00001
    H28      X    -0.00801  0.00118  0.00006 -0.00008  0.00003  0.00005
    H28      Y    -0.01267  0.00386  0.00007 -0.00011  0.00005  0.00010
    H28      Z    -0.01137  0.00391  0.00007 -0.00012  0.00005  0.00005
    H29      X    -0.00765  0.00164 -0.00004  0.00019 -0.00004 -0.00008
    H29      Y     0.00654 -0.00156  0.00006 -0.00024  0.00004  0.00007
    H29      Z    -0.00789  0.00189 -0.00008  0.00027 -0.00005 -0.00009
    C30      X     0.00026 -0.00205  0.00000  0.00001 -0.00000 -0.00001
    C30      Y     0.00042 -0.00254 -0.00001  0.00001 -0.00001 -0.00002
    C30      Z     0.00026 -0.00065  0.00001 -0.00002 -0.00000 -0.00002
    H31      X    -0.00138  0.01018 -0.00004  0.00007  0.00001  0.00006
    H31      Y    -0.00327  0.01165 -0.00004  0.00009  0.00003  0.00003
    H31      Z    -0.00454  0.02034 -0.00005  0.00012  0.00004  0.00023
    H32      X    -0.00248  0.01682  0.00010 -0.00021  0.00004  0.00008
    H32      Y    -0.00233  0.01713  0.00013 -0.00023  0.00005  0.00011
    H32      Z     0.00147 -0.00991 -0.00008  0.00016 -0.00003 -0.00001
    C33      X     0.00001 -0.00000  0.00049 -0.00003 -0.00002 -0.00000
    C33      Y     0.00002 -0.00001  0.00076 -0.00007 -0.00005  0.00001
    C33      Z     0.00004 -0.00000  0.00138 -0.00004 -0.00002  0.00001
    H34      X    -0.00016  0.00005 -0.00595  0.00033  0.00013 -0.00000
    H34      Y    -0.00032  0.00007 -0.01270  0.00061  0.00037 -0.00003
    H34      Z    -0.00014  0.00004 -0.00524  0.00028  0.00010 -0.00003
    H35      X     0.00009  0.00001  0.00295  0.00001  0.00003 -0.00001
    H35      Y    -0.00002 -0.00001 -0.00094  0.00006  0.00007 -0.00005
    H35      Z    -0.00028 -0.00003 -0.00810  0.00002 -0.00005  0.00009
    C36      X     0.00001 -0.00000  0.00018 -0.00002 -0.00001 -0.00000
    C36      Y     0.00001 -0.00003  0.00030 -0.00000  0.00001 -0.00000
    C36      Z     0.00001 -0.00000  0.00010 -0.00000  0.00000 -0.00001
    H37      X    -0.00001 -0.00004  0.00079  0.00004  0.00001  0.00001
    H37      Y     0.00003  0.00015 -0.00219 -0.00002  0.00001 -0.00007
    H37      Z    -0.00001 -0.00006  0.00097 -0.00005 -0.00005  0.00006
    H38      X    -0.00013  0.00010 -0.00253  0.00013  0.00010  0.00001
    H38      Y    -0.00017  0.00015 -0.00257  0.00014  0.00006  0.00004
    H38      Z    -0.00013  0.00013 -0.00202  0.00009  0.00005  0.00002
    C39      X     0.00000  0.00001 -0.00000  0.00000 -0.00000 -0.00000
    C39      Y    -0.00004 -0.00034  0.00006 -0.00003 -0.00001 -0.00000
    C39      Z    -0.00001  0.00021 -0.00006  0.00000  0.00001 -0.00001
    H40      X    -0.00001  0.00041 -0.00023  0.00001  0.00004 -0.00005
    H40      Y    -0.00002  0.00017 -0.00008 -0.00001  0.00003 -0.00000
    H40      Z     0.00009 -0.00260  0.00092 -0.00007 -0.00014  0.00010
    H41      X    -0.00015 -0.00132  0.00046 -0.00011 -0.00002  0.00005
    H41      Y     0.00027  0.00247 -0.00067  0.00021  0.00004 -0.00006
    H41      Z    -0.00010 -0.00087  0.00021 -0.00007 -0.00000  0.00003
    H42      X     0.00012  0.00079 -0.00016  0.00008 -0.00001  0.00002
    H42      Y     0.00023  0.00141 -0.00017  0.00016 -0.00003  0.00005
    H42      Z     0.00014  0.00103 -0.00015  0.00012 -0.00002  0.00003
    C43      X     0.00007 -0.00000  0.00124  0.00020  0.00016  0.00000
    C43      Y     0.00147 -0.00007  0.08041  0.00220  0.00047  0.00000
    C43      Z    -0.00059 -0.00004 -0.03476  0.00028  0.00031 -0.00001
    H44      X     0.00324 -0.00007  0.19865  0.00346  0.00018  0.00006
    H44      Y    -0.01258  0.00023 -0.72241 -0.01164  0.00037 -0.00005
    H44      Z     0.00726 -0.00017  0.42189  0.00765  0.00060  0.00003
    H45      X    -0.00215 -0.00012 -0.11034  0.00055  0.00056 -0.00007
    H45      Y     0.00031 -0.00002  0.01502  0.00060  0.00016  0.00001
    H45      Z     0.00361  0.00022  0.18811 -0.00066 -0.00095  0.00014
    H46      X    -0.00218  0.00023 -0.10612 -0.00607 -0.00221  0.00004
    H46      Y    -0.00503  0.00056 -0.24751 -0.01615 -0.00740  0.00000
    H46      Z    -0.00395  0.00039 -0.19463 -0.01179 -0.00508 -0.00004
    C47      X     0.00023 -0.06338 -0.00003  0.00004  0.00000  0.00000
    C47      Y     0.00020 -0.03328 -0.00001 -0.00002  0.00002 -0.00001
    C47      Z     0.00010 -0.05125 -0.00001  0.00002  0.00000  0.00000
    H48      X    -0.00007  0.18084  0.00010 -0.00032  0.00009 -0.00002
    H48      Y     0.00017 -0.22515 -0.00013  0.00032 -0.00009  0.00005
    H48      Z    -0.00021  0.27463  0.00016 -0.00042  0.00013 -0.00000
    H49      X    -0.00122  0.15149  0.00022 -0.00022  0.00000  0.00016
    H49      Y    -0.00073  0.10687  0.00012 -0.00012 -0.00001  0.00016
    H49      Z     0.00102 -0.14263 -0.00018  0.00017  0.00001 -0.00004
    H50      X    -0.00161  0.42644  0.00008  0.00003 -0.00015 -0.00033
    H50      Y    -0.00199  0.51639  0.00010  0.00002 -0.00014 -0.00014
    H50      Z    -0.00190  0.47837  0.00011  0.00004 -0.00013  0.00003
    C51      X     0.04278  0.00006 -0.00060 -0.00001 -0.00000  0.00002
    C51      Y     0.07631  0.00032 -0.00139 -0.00004 -0.00000 -0.00000
    C51      Z    -0.01287 -0.00018  0.00055  0.00005 -0.00000 -0.00000
    H52      X    -0.45269 -0.00200  0.00913  0.00028  0.00003 -0.00000
    H52      Y    -0.59161 -0.00254  0.01192  0.00035  0.00002 -0.00006
    H52      Z     0.35173  0.00153 -0.00699 -0.00024  0.00000  0.00004
    H53      X     0.14501  0.00146 -0.00370 -0.00005 -0.00002 -0.00008
    H53      Y    -0.12240 -0.00140  0.00333  0.00008  0.00003  0.00011
    H53      Z     0.09783  0.00096 -0.00254 -0.00011 -0.00001 -0.00004
    H54      X    -0.20212 -0.00016  0.00180 -0.00006  0.00002 -0.00003
    H54      Y    -0.19750 -0.00000  0.00160 -0.00006  0.00003  0.00003
    H54      Z    -0.30118 -0.00013  0.00284 -0.00011  0.00006  0.00005
    H55      X     0.02035  0.00662  0.01081  0.00094  0.00001 -0.00002
    H55      Y    -0.00344 -0.00123 -0.00277 -0.00024 -0.00000 -0.00001
    H55      Z    -0.00928 -0.00322 -0.00572 -0.00055  0.00003  0.00004
    H56      X     0.00030  0.00289  0.00358  0.00056  0.00001  0.00004
    H56      Y     0.00258  0.00478  0.00507  0.00089 -0.00003  0.00005
    H56      Z     0.00051  0.00083  0.00024 -0.00014 -0.00006  0.00005
    H57      X     0.00504  0.00880  0.00636  0.00016  0.00010 -0.00003
    H57      Y    -0.00083 -0.00148 -0.00116 -0.00001  0.00001  0.00003
    H57      Z    -0.00221 -0.00372 -0.00291 -0.00008 -0.00005  0.00000
    H58      X    -0.00048 -0.00054 -0.00078 -0.00015 -0.00005  0.00004
    H58      Y    -0.00040 -0.00082 -0.00084 -0.00013 -0.00008  0.00006
    H58      Z    -0.00303 -0.00465 -0.00445 -0.00067 -0.00013  0.00007
  
  Number of imaginary frequencies:   1
   
  Writing vibrational animation data to 9RR-Me-BPEpro-SConformation2fromJCTCSI_isomer8.vib
  Writing vibrational spectrum data to 9RR-Me-BPEpro-SConformation2fromJCTCSI_isomer8_vib.spm
  rotational symmetry number:  1

  rotational temperatures (K):      0.011807      0.007993      0.007142
   
    1 vibrational frequencies below  10.0 cm-1 not included in zero-point
  energy or thermochemical analysis.  Set freqcut to change the frequency
  cutoff value.

  vibrational temperatures:
       mode:      2        3        4        5        6        7
  temp. (K):    42.57    56.61    60.03    89.05   106.10   118.81
   
       mode:      8        9       10       11       12       13
  temp. (K):   125.84   134.86   146.18   173.24   188.12   206.50
   
       mode:     14       15       16       17       18       19
  temp. (K):   222.68   238.68   272.75   287.79   306.99   309.29
   
       mode:     20       21       22       23       24       25
  temp. (K):   326.62   338.49   355.71   360.55   362.43   367.42
   
       mode:     26       27       28       29       30       31
  temp. (K):   374.00   384.46   396.02   405.89   436.74   477.64
   
       mode:     32       33       34       35       36       37
  temp. (K):   501.85   512.58   542.97   564.48   573.71   582.15
   
       mode:     38       39       40       41       42       43
  temp. (K):   606.21   613.94   623.04   686.08   691.47   712.68
   
       mode:     44       45       46       47       48       49
  temp. (K):   776.38   777.14   819.71   831.46   854.10   862.33
   
       mode:     50       51       52       53       54       55
  temp. (K):   880.09   889.91   913.70   946.71   992.19   999.41
   
       mode:     56       57       58       59       60       61
  temp. (K):  1014.79  1072.64  1179.92  1184.82  1197.94  1217.71
   
       mode:     62       63       64       65       66       67
  temp. (K):  1231.42  1234.11  1296.73  1305.47  1341.83  1349.04
   
       mode:     68       69       70       71       72       73
  temp. (K):  1355.40  1362.81  1365.03  1438.58  1440.57  1442.98
   
       mode:     74       75       76       77       78       79
  temp. (K):  1452.96  1453.07  1462.46  1477.48  1485.67  1491.96
   
       mode:     80       81       82       83       84       85
  temp. (K):  1543.67  1554.31  1572.03  1574.19  1577.47  1586.98
   
       mode:     86       87       88       89       90       91
  temp. (K):  1609.18  1626.53  1639.03  1643.34  1674.98  1707.64
   
       mode:     92       93       94       95       96       97
  temp. (K):  1715.91  1734.85  1763.95  1765.49  1818.74  1845.68
   
       mode:     98       99      100      101      102      103
  temp. (K):  1856.19  1859.80  1866.46  1867.43  1887.15  1894.75
   
       mode:    104      105      106      107      108      109
  temp. (K):  1896.47  1904.72  1905.91  1961.15  1964.58  1966.54
   
       mode:    110      111      112      113      114      115
  temp. (K):  1970.48  1972.95  2013.59  2055.44  2060.61  2062.28
   
       mode:    116      117      118      119      120      121
  temp. (K):  2062.75  2120.77  2129.51  2149.36  2159.07  2159.93
   
       mode:    122      123      124      125      126      127
  temp. (K):  2160.32  2168.92  2170.51  2171.42  2172.23  2174.10
   
       mode:    128      129      130      131      132      133
  temp. (K):  2176.19  2177.78  2179.82  2183.59  2211.21  2433.30
   
       mode:    134      135      136      137      138      139
  temp. (K):  2784.18  3023.41  3339.37  4358.85  4362.14  4366.93
   
       mode:    140      141      142      143      144      145
  temp. (K):  4369.06  4374.39  4376.81  4383.11  4384.88  4389.69
   
       mode:    146      147      148      149      150      151
  temp. (K):  4389.95  4391.87  4399.75  4405.01  4410.47  4454.09
   
       mode:    152      153      154      155      156      157
  temp. (K):  4458.50  4462.41  4464.75  4474.32  4479.99  4483.08
   
       mode:    158      159      160      161      162      163
  temp. (K):  4486.12  4488.44  4489.04  4491.01  4495.00  4514.50
   
       mode:    164      165      166      167      168
  temp. (K):  4519.99  4536.00  4555.56  4699.29  5163.97
   
   
  Thermodynamic properties calculated assuming an ideal gas

  In the table below, the units for temperature
  are kelvins, the units for U, H, and G are
  kJ/mol and the units for Cv and S are J/(mol K)

  The zero point energy (ZPE):   1303.663 kJ/mol
  is not included in U, H, or G in the table below
  
 
  =============================================================================
  Thermodynamic properties for P =     1.00 atm, calculated at   1 temperatures


  T =   298.15 K, P =     1.00 atm
   
                  U         Cv          S          H          G        ln(Q)
              =========  =========  =========  =========  =========  =========
  trans.          3.718     12.472    185.189      6.197    -49.017   19.77309
  rot.            3.718     12.472    147.364      3.718    -40.218   16.22377
  vib.           67.164    435.893    427.885     67.164    -60.409   24.36885
  elec.           0.000      0.000      0.000      0.000      0.000    0.00000
  ----------------------------------------------------------------------------
  total          74.601    460.837    760.437     77.080   -149.644   60.36571
   
   Total internal energy, Utot(SCFE + ZPE + U):   -1682.686824 hartrees
              Total enthalpy, Htot (Utot + pV):   -1682.685880 hartrees
    Total Gibbs free energy, Gtot (Htot - T*S):   -1682.772235 hartrees
   
  Peak memory usage:   1417 Mb
  
  end of program freq
   
 Time(freq)  user:        1.4  user+sys:        1.4  wallclock:        7.6

 Total cpu seconds     user:   16431.769   user+sys:   16431.769
  
 Total elapsed time:    6617 seconds

Job 9RR-Me-BPEpro-SConformation2fromJCTCSI_isomer8 completed on seskscpn146.prim.scp at Wed Oct 18 12:11:20 2023
