Basic Ethane minimum                                                    
Freq      RB3LYP                        6-31G(d)                      
Number of atoms                            I                8
Charge                                     I                0
Multiplicity                               I                1
Number of electrons                        I               18
Number of alpha electrons                  I                9
Number of beta electrons                   I                9
Number of basis functions                  I               42
Number of contracted shells                I               20
Highest angular momentum                   I                2
Largest degree of contraction              I                6
Number of primitive shells                 I               46
Viriral Ratio                              R      2.010831306471967E+00
SCF Energy                                 R     -7.983041689192832E+01
Total Energy                               R     -7.983041689192832E+01
RMS Force                                  R      9.266868208221845E-07
RMS Density                                R      2.814254434273378E-10
Atomic numbers                             I   N=           8
           1           6           1           6           1           1
           1           1
Nuclear charges                            R   N=           8
  1.00000000E+00  6.00000000E+00  1.00000000E+00  6.00000000E+00  1.00000000E+00
  1.00000000E+00  1.00000000E+00  1.00000000E+00
Current cartesian coordinates              R   N=          24
  3.38072221E-02  5.85043133E-02 -1.03882990E-02 -2.28711577E-04 -3.70016411E-04
  2.05993680E+00  1.96304524E+00  5.84882183E-02  2.71799729E+00 -1.36362601E+00
 -2.36189358E+00  3.02405568E+00 -9.30876025E-01  1.72928244E+00  2.71803224E+00
 -4.32978702E-01 -4.09154603E+00  2.36596023E+00 -3.32689996E+00 -2.42075181E+00
  2.36599519E+00 -1.39766196E+00 -2.42076790E+00  5.09438078E+00
Shell types                                I   N=          20
           0           0           0          -1          -1           2
           0           0           0          -1          -1           2
           0           0           0           0           0           0
           0           0
Number of primitives per shell             I   N=          20
           3           1           6           3           1           1
           3           1           6           3           1           1
           3           1           3           1           3           1
           3           1
Shell to atom map                          I   N=          20
           1           1           2           2           2           2
           3           3           4           4           4           4
           5           5           6           6           7           7
           8           8
Primitive exponents                        R   N=          46
  1.87311370E+01  2.82539436E+00  6.40121692E-01  1.61277759E-01  3.04752488E+03
  4.57369518E+02  1.03948685E+02  2.92101553E+01  9.28666296E+00  3.16392696E+00
  7.86827235E+00  1.88128854E+00  5.44249258E-01  1.68714478E-01  8.00000000E-01
  1.87311370E+01  2.82539436E+00  6.40121692E-01  1.61277759E-01  3.04752488E+03
  4.57369518E+02  1.03948685E+02  2.92101553E+01  9.28666296E+00  3.16392696E+00
  7.86827235E+00  1.88128854E+00  5.44249258E-01  1.68714478E-01  8.00000000E-01
  1.87311370E+01  2.82539436E+00  6.40121692E-01  1.61277759E-01  1.87311370E+01
  2.82539436E+00  6.40121692E-01  1.61277759E-01  1.87311370E+01  2.82539436E+00
  6.40121692E-01  1.61277759E-01  1.87311370E+01  2.82539436E+00  6.40121692E-01
  1.61277759E-01
Contraction coefficients                   R   N=          46
  3.34946043E-02  2.34726953E-01  8.13757326E-01  1.00000000E+00  1.83473713E-03
  1.40373228E-02  6.88426223E-02  2.32184443E-01  4.67941348E-01  3.62311985E-01
 -1.19332420E-01 -1.60854152E-01  1.14345644E+00  1.00000000E+00  1.00000000E+00
  3.34946043E-02  2.34726953E-01  8.13757326E-01  1.00000000E+00  1.83473713E-03
  1.40373228E-02  6.88426223E-02  2.32184443E-01  4.67941348E-01  3.62311985E-01
 -1.19332420E-01 -1.60854152E-01  1.14345644E+00  1.00000000E+00  1.00000000E+00
  3.34946043E-02  2.34726953E-01  8.13757326E-01  1.00000000E+00  3.34946043E-02
  2.34726953E-01  8.13757326E-01  1.00000000E+00  3.34946043E-02  2.34726953E-01
  8.13757326E-01  1.00000000E+00  3.34946043E-02  2.34726953E-01  8.13757326E-01
  1.00000000E+00
P(S=P) Contraction coefficients            R   N=          46
  0.00000000E+00  0.00000000E+00  0.00000000E+00  0.00000000E+00  0.00000000E+00
  0.00000000E+00  0.00000000E+00  0.00000000E+00  0.00000000E+00  0.00000000E+00
  6.89990666E-02  3.16423961E-01  7.44308291E-01  1.00000000E+00  0.00000000E+00
  0.00000000E+00  0.00000000E+00  0.00000000E+00  0.00000000E+00  0.00000000E+00
  0.00000000E+00  0.00000000E+00  0.00000000E+00  0.00000000E+00  0.00000000E+00
  6.89990666E-02  3.16423961E-01  7.44308291E-01  1.00000000E+00  0.00000000E+00
  0.00000000E+00  0.00000000E+00  0.00000000E+00  0.00000000E+00  0.00000000E+00
  0.00000000E+00  0.00000000E+00  0.00000000E+00  0.00000000E+00  0.00000000E+00
  0.00000000E+00  0.00000000E+00  0.00000000E+00  0.00000000E+00  0.00000000E+00
  0.00000000E+00
Coordinates of each shell                  R   N=          60
  3.38072221E-02  5.85043133E-02 -1.03882990E-02  3.38072221E-02  5.85043133E-02
 -1.03882990E-02 -2.28711577E-04 -3.70016411E-04  2.05993680E+00 -2.28711577E-04
 -3.70016411E-04  2.05993680E+00 -2.28711577E-04 -3.70016411E-04  2.05993680E+00
 -2.28711577E-04 -3.70016411E-04  2.05993680E+00  1.96304524E+00  5.84882183E-02
  2.71799729E+00  1.96304524E+00  5.84882183E-02  2.71799729E+00 -1.36362601E+00
 -2.36189358E+00  3.02405568E+00 -1.36362601E+00 -2.36189358E+00  3.02405568E+00
 -1.36362601E+00 -2.36189358E+00  3.02405568E+00 -1.36362601E+00 -2.36189358E+00
  3.02405568E+00 -9.30876025E-01  1.72928244E+00  2.71803224E+00 -9.30876025E-01
  1.72928244E+00  2.71803224E+00 -4.32978702E-01 -4.09154603E+00  2.36596023E+00
 -4.32978702E-01 -4.09154603E+00  2.36596023E+00 -3.32689996E+00 -2.42075181E+00
  2.36599519E+00 -3.32689996E+00 -2.42075181E+00  2.36599519E+00 -1.39766196E+00
 -2.42076790E+00  5.09438078E+00 -1.39766196E+00 -2.42076790E+00  5.09438078E+00
Alpha Orbital Energies                     R   N=          42
 -1.01723662E+01 -1.01721542E+01 -7.47413937E-01 -6.11964096E-01 -4.30084393E-01
 -4.30078088E-01 -3.62847494E-01 -3.40071708E-01 -3.40064673E-01  1.04780230E-01
  1.56042485E-01  1.63684617E-01  1.63686265E-01  1.90226880E-01  1.90233202E-01
  2.42550584E-01  5.13125812E-01  5.43746736E-01  5.43757265E-01  6.36799122E-01
  6.36812480E-01  6.68522503E-01  8.82982236E-01  8.82989428E-01  9.06553884E-01
  9.19637504E-01  9.19651248E-01  9.79294932E-01  1.06595374E+00  1.43937714E+00
  1.52622710E+00  1.52624305E+00  1.93240278E+00  1.98088275E+00  1.98090869E+00
  2.27059532E+00  2.27060523E+00  2.33313974E+00  2.33316818E+00  2.58722304E+00
  4.14494399E+00  4.36591437E+00
Alpha MO coefficients                      R   N=        1764
 -1.56478127E-04  1.95020986E-03  7.02016000E-01  3.50457776E-02  5.60700753E-05
  9.70853539E-05 -3.96493552E-05 -8.82219901E-03 -4.29052975E-04 -7.42953456E-04
  3.03342926E-04 -6.58111686E-03 -6.71947071E-03 -6.54651861E-03 -1.38354546E-04
  5.64714263E-05  9.78344565E-05 -1.56456610E-04  1.95021441E-03  7.02016000E-01
  3.50457776E-02 -5.60700777E-05 -9.70853537E-05  3.96493522E-05 -8.82219901E-03
  4.29052984E-04  7.42953456E-04 -3.03342914E-04 -6.58111686E-03 -6.71947071E-03
 -6.54651860E-03 -1.38354546E-04  5.64714256E-05  9.78344565E-05 -1.56480530E-04
  1.95016462E-03 -1.56480530E-04  1.95016462E-03 -1.56456607E-04  1.95021441E-03
 -1.56478129E-04  1.95020985E-03  7.25567067E-05  1.88752913E-03  7.02182105E-01
  3.53903679E-02 -6.01865038E-05 -1.04274639E-04  4.25700708E-05 -1.48433251E-02
  9.52542398E-04  1.64998519E-03 -6.73664247E-04 -6.31904665E-03 -6.24913370E-03
 -6.33650143E-03  6.98954185E-05 -2.85412952E-05 -4.94280174E-05  7.25877232E-05
  1.88753610E-03 -7.02182105E-01 -3.53903679E-02 -6.01865015E-05 -1.04274639E-04
  4.25700736E-05  1.48433251E-02  9.52542383E-04  1.64998519E-03 -6.73664265E-04
  6.31904665E-03  6.24913371E-03  6.33650143E-03 -6.98954187E-05  2.85412956E-05
  4.94280168E-05  7.25666581E-05  1.88753839E-03 -7.25666579E-05 -1.88753839E-03
 -7.25877253E-05 -1.88753611E-03 -7.25567047E-05 -1.88752912E-03  8.54993820E-02
  1.85304104E-02 -1.48577224E-01  2.82951876E-01 -2.57750990E-02 -4.46463030E-02
  1.82277198E-02  2.41027034E-01 -3.40123160E-03 -5.89213933E-03  2.40580222E-03
 -1.56373871E-04  2.65316496E-03 -8.58434300E-04  2.80926508E-03 -1.14774126E-03
 -1.98671999E-03  8.54988918E-02  1.85306953E-02 -1.48577224E-01  2.82951876E-01
  2.57750987E-02  4.46463031E-02 -1.82277202E-02  2.41027034E-01  3.40123145E-03
  5.89213934E-03 -2.40580241E-03 -1.56373911E-04  2.65316496E-03 -8.58434262E-04
  2.80926509E-03 -1.14774128E-03 -1.98671997E-03  8.54997014E-02  1.85300519E-02
  8.54997014E-02  1.85300519E-02  8.54988919E-02  1.85306953E-02  8.54993818E-02
  1.85304104E-02  1.17748462E-01  4.41952838E-02 -1.29494277E-01  2.56043371E-01
  6.20335065E-02  1.07443295E-01 -4.38660960E-02  2.59011714E-01  2.24373740E-02
  3.88611759E-02 -1.58656951E-02  1.08101365E-03 -8.18442331E-03  3.39744500E-03
 -9.26498165E-03  3.78180000E-03  6.55147798E-03  1.17744742E-01  4.41942634E-02
  1.29494277E-01 -2.56043371E-01  6.20335068E-02  1.07443295E-01 -4.38660956E-02
 -2.59011714E-01  2.24373742E-02  3.88611759E-02 -1.58656948E-02 -1.08101360E-03
  8.18442331E-03 -3.39744505E-03  9.26498161E-03 -3.78179998E-03 -6.55147804E-03
  1.17745263E-01  4.41940872E-02 -1.17745263E-01 -4.41940872E-02 -1.17744742E-01
 -4.41942633E-02 -1.17748462E-01 -4.41952838E-02 -1.20766505E-01 -9.27552849E-02
 -1.19508282E-06  2.51382179E-06 -1.66466358E-01  1.79719239E-01  2.04801963E-01
  2.83207708E-06 -7.51654365E-02  8.11519405E-02  9.24762392E-02  1.72000094E-03
  6.13177294E-03 -7.85155680E-03 -6.23436911E-03 -7.45142146E-03  3.11793745E-03
 -5.22910473E-02 -4.01636719E-02  1.19503349E-06 -2.51371700E-06 -1.66466357E-01
  1.79719239E-01  2.04801964E-01 -2.83193550E-06 -7.51654363E-02  8.11519406E-02
  9.24762399E-02 -1.72000102E-03 -6.13177297E-03  7.85155690E-03  6.23436906E-03
  7.45142137E-03 -3.11793754E-03  1.73060345E-01  1.32918845E-01 -1.73060345E-01
 -1.32918845E-01  5.22910462E-02  4.01636712E-02  1.20766506E-01  9.27552858E-02
 -1.30104747E-01 -9.99303292E-02  5.14402249E-07 -1.53267786E-06  2.27126158E-01
 -4.10541104E-02  2.20638958E-01  1.92873643E-07  1.02559863E-01 -1.85380366E-02
  9.96297800E-02  9.86049685E-03 -1.40074523E-03 -8.45892119E-03 -1.37855775E-03
  5.88858516E-03 -4.67560772E-03  1.69640466E-01  1.30297509E-01 -5.14734422E-07
  1.53338472E-06  2.27126157E-01 -4.10541100E-02  2.20638959E-01 -1.91929461E-07
  1.02559862E-01 -1.85380363E-02  9.96297803E-02 -9.86049676E-03  1.40074518E-03
  8.45892111E-03  1.37855782E-03 -5.88858533E-03  4.67560771E-03 -3.95326094E-02
 -3.03637010E-02  3.95326086E-02  3.03637007E-02 -1.69640465E-01 -1.30297509E-01
  1.30104747E-01  9.99303291E-02  8.18032538E-02  7.95643213E-02  1.83056364E-02
 -4.37400677E-02  1.94168687E-01  3.36306365E-01 -1.37361604E-01 -4.91442510E-02
  9.09538439E-02  1.57533030E-01 -6.43427034E-02  5.63102439E-03 -4.34751219E-03
  8.13209830E-03 -9.97717827E-03  4.07245164E-03  7.05395930E-03  8.17417618E-02
  7.95096193E-02  1.83056364E-02 -4.37400677E-02 -1.94168688E-01 -3.36306365E-01
  1.37361603E-01 -4.91442510E-02 -9.09538441E-02 -1.57533030E-01  6.43427032E-02
  5.63102435E-03 -4.34751219E-03  8.13209835E-03 -9.97717825E-03  4.07245162E-03
  7.05395934E-03  8.17380048E-02  7.95061324E-02  8.17380048E-02  7.95061324E-02
  8.17417616E-02  7.95096192E-02  8.18032540E-02  7.95643214E-02 -1.64359644E-01
 -1.61413193E-01  2.96850624E-06 -7.65083789E-06 -1.36334243E-01  1.71063418E-01
  2.26022059E-01 -6.42064172E-06 -6.59851140E-02  8.27958871E-02  1.09393048E-01
 -2.36025332E-03  2.12046796E-02 -1.88429436E-02 -1.00969931E-02 -4.47297347E-04
  1.04172944E-02 -3.86857606E-02 -3.79921887E-02  2.96853844E-06 -7.65091597E-06
  1.36334244E-01 -1.71063417E-01 -2.26022057E-01 -6.42065935E-06  6.59851143E-02
 -8.27958868E-02 -1.09393047E-01 -2.36025336E-03  2.12046796E-02 -1.88429436E-02
 -1.00969930E-02 -4.47297251E-04  1.04172944E-02  2.03082697E-01  1.99441927E-01
  2.03082697E-01  1.99441926E-01 -3.86857606E-02 -3.79921888E-02 -1.64359643E-01
 -1.61413192E-01 -1.39575380E-01 -1.37077340E-01  3.27019658E-06 -8.32650195E-06
  2.41589316E-01 -6.10635017E-02  1.91940179E-01 -7.24421439E-06  1.16932294E-01
 -2.95553837E-02  9.28979443E-02  2.35802406E-02 -7.57721248E-03 -1.60018845E-02
  8.48201054E-03  9.44266786E-03  3.17473462E-03  2.12152028E-01  2.08355627E-01
  3.27031895E-06 -8.32679858E-06 -2.41589317E-01  6.10635031E-02 -1.91940179E-01
 -7.24428710E-06 -1.16932295E-01  2.95553846E-02 -9.28979443E-02  2.35802406E-02
 -7.57721253E-03 -1.60018844E-02  8.48201052E-03  9.44266813E-03  3.17473457E-03
 -7.25475119E-02 -7.12471434E-02 -7.25475130E-02 -7.12471446E-02  2.12152029E-01
  2.08355628E-01 -1.39575379E-01 -1.37077340E-01 -1.32812411E-02 -7.82898489E-01
 -9.86030189E-02  1.23886475E-01  5.97664993E-02  1.03509402E-01 -4.22520725E-02
  1.59104471E+00  2.32974041E-01  4.03459283E-01 -1.64695804E-01 -8.92289269E-03
 -2.81032428E-03 -1.04507600E-02  6.11314440E-03 -2.49557161E-03 -4.32246824E-03
 -1.32848756E-02 -7.82935134E-01 -9.86030189E-02  1.23886475E-01 -5.97665002E-02
 -1.03509402E-01  4.22520713E-02  1.59104471E+00 -2.32974045E-01 -4.03459282E-01
  1.64695799E-01 -8.92289268E-03 -2.81032428E-03 -1.04507601E-02  6.11314441E-03
 -2.49557161E-03 -4.32246823E-03 -1.32857128E-02 -7.82899416E-01 -1.32857128E-02
 -7.82899416E-01 -1.32848757E-02 -7.82935137E-01 -1.32812410E-02 -7.82898486E-01
 -1.73653532E-02 -7.92615136E-01 -1.31718951E-01  1.23588868E-01  1.56509682E-02
  2.70327916E-02 -1.10883106E-02  2.30672966E+00 -1.16465026E-01 -2.01920583E-01
  8.23054736E-02 -9.28660269E-03 -1.39580925E-02 -8.11973847E-03 -4.67582146E-03
  1.90966517E-03  3.30752075E-03 -1.73507968E-02 -7.92466121E-01  1.31718951E-01
 -1.23588868E-01  1.56509668E-02  2.70327917E-02 -1.10883123E-02 -2.30672966E+00
 -1.16465031E-01 -2.01920583E-01  8.23054678E-02  9.28660267E-03  1.39580925E-02
  8.11973849E-03  4.67582157E-03 -1.90966519E-03 -3.30752059E-03 -1.73349726E-02
 -7.92233691E-01  1.73349727E-02  7.92233692E-01  1.73507962E-02  7.92466111E-01
  1.73653537E-02  7.92615144E-01  8.23116801E-02  1.03655541E+00 -8.01094461E-06
  4.38153743E-06  1.68317133E-01  1.48971278E-03  2.41640052E-01  1.61759211E-04
  4.38155308E-01  3.84661851E-03  6.29085450E-01 -1.32695648E-02 -1.57584033E-04
  1.34256802E-02 -7.39180344E-03 -5.49048632E-03 -1.05965396E-02 -8.14933978E-02
 -1.02632561E+00  8.01055069E-06 -4.38077268E-06  1.68317135E-01  1.48970907E-03
  2.41640051E-01 -1.61753244E-04  4.38155319E-01  3.84660456E-03  6.29085443E-01
  1.32695647E-02  1.57584075E-04 -1.34256800E-02  7.39180357E-03  5.49048678E-03
  1.05965395E-02 -8.24269563E-04 -1.04266603E-02  8.24267653E-04  1.04266352E-02
  8.14933983E-02  1.02632562E+00 -8.23116797E-02 -1.03655540E+00 -4.65661459E-02
 -5.86402529E-01  2.28420503E-05 -2.21858268E-05  1.97793463E-01 -1.70024427E-01
 -1.36723884E-01 -4.06712214E-04  5.14956198E-01 -4.42581293E-01 -3.55968698E-01
 -1.04307006E-02  1.80302365E-02 -7.59494213E-03 -7.77654030E-03  4.20471068E-03
  5.36166731E-03 -4.79917363E-02 -6.04333258E-01 -2.28420845E-05  2.21858938E-05
  1.97793463E-01 -1.70024427E-01 -1.36723884E-01  4.06712735E-04  5.14956196E-01
 -4.42581293E-01 -3.55968700E-01  1.04307006E-02 -1.80302365E-02  7.59494210E-03
  7.77654029E-03 -4.20471068E-03 -5.36166731E-03  9.45697245E-02  1.19116464E+00
 -9.45697244E-02 -1.19116464E+00  4.79917365E-02  6.04333254E-01  4.65661457E-02
  5.86402532E-01 -2.39335460E-02 -6.02980922E-01 -2.44431520E-06  2.36008842E-06
 -2.33984193E-01  8.73530364E-02 -1.16950141E-01  5.35711705E-05 -1.07325462E+00
  4.00663954E-01 -5.36410239E-01 -1.92472544E-04  2.75390099E-03 -2.56278950E-03
 -7.41012637E-03  1.12860580E-02 -1.37942302E-02  5.31212180E-02  1.33837606E+00
 -2.44326889E-06  2.35994550E-06  2.33984191E-01 -8.73530367E-02  1.16950138E-01
  5.35458329E-05  1.07325461E+00 -4.00663961E-01  5.36410236E-01 -1.92472590E-04
  2.75390106E-03 -2.56278927E-03 -7.41012639E-03  1.12860579E-02 -1.37942304E-02
 -2.91919177E-02 -7.35458519E-01 -2.91919184E-02 -7.35458514E-01  5.31212176E-02
  1.33837605E+00 -2.39335453E-02 -6.02980902E-01  4.75153811E-02  1.19739158E+00
  8.69554228E-07 -1.31803969E-06 -6.63696155E-02  1.33122966E-01  2.32229805E-01
 -3.66425272E-05 -3.04458395E-01  6.10631504E-01  1.06522176E+00 -9.28656928E-03
  4.19879226E-03  5.08705216E-03  8.26890362E-03  1.35287235E-02  6.64189503E-03
 -3.03598518E-03 -7.64643755E-02  8.68975219E-07 -1.31796055E-06  6.63696130E-02
 -1.33122966E-01 -2.32229809E-01 -3.66284941E-05  3.04458392E-01 -6.10631501E-01
 -1.06522177E+00 -9.28656953E-03  4.19879222E-03  5.08705233E-03  8.26890348E-03
  1.35287234E-02  6.64189489E-03 -4.44846313E-02 -1.12087356E+00 -4.44846308E-02
 -1.12087357E+00 -3.03598604E-03 -7.64643971E-02  4.75153818E-02  1.19739159E+00
 -5.47707050E-02 -4.18179996E-01  4.73450970E-02 -4.03554893E-02  1.68752747E-01
  2.92288199E-01 -1.19335771E-01 -9.12788115E-01  8.10565810E-01  1.40397625E+00
 -5.73208370E-01 -2.66313143E-03  1.58349666E-02 -7.28670563E-03  1.84979778E-02
 -7.55117944E-03 -1.30802030E-02 -5.47753920E-02 -4.18091783E-01 -4.73450970E-02
  4.03554893E-02  1.68752748E-01  2.92288199E-01 -1.19335769E-01  9.12788115E-01
  8.10565812E-01  1.40397625E+00 -5.73208367E-01  2.66313133E-03 -1.58349666E-02
  7.28670572E-03 -1.84979778E-02  7.55117940E-03  1.30802029E-02 -5.47794716E-02
 -4.18109016E-01  5.47794716E-02  4.18109016E-01  5.47753923E-02  4.18091784E-01
  5.47707048E-02  4.18179995E-01 -1.16432851E-01 -3.22201384E-02  1.04317434E-02
  4.69639311E-02 -2.88200708E-01 -4.99185157E-01  2.03771014E-01  3.63586527E-01
  4.39243424E-01  7.60808703E-01 -3.10573110E-01 -3.16177810E-03  6.03118153E-02
 -1.90277442E-02  6.34726730E-02 -2.59112591E-02 -4.48837015E-02 -1.16441850E-01
 -3.21921004E-02  1.04317434E-02  4.69639311E-02  2.88200710E-01  4.99185157E-01
 -2.03771012E-01  3.63586527E-01 -4.39243426E-01 -7.60808703E-01  3.10573108E-01
 -3.16177817E-03  6.03118153E-02 -1.90277441E-02  6.34726730E-02 -2.59112592E-02
 -4.48837015E-02 -1.16449212E-01 -3.21900490E-02 -1.16449212E-01 -3.21900491E-02
 -1.16441851E-01 -3.21920990E-02 -1.16432850E-01 -3.22201398E-02  3.89096582E-01
  3.22701718E-02  1.41036525E-06  2.46774106E-06 -2.10968177E-01 -3.59071208E-02
 -3.86365855E-01  2.49705598E-05  3.59728117E-01  6.11959007E-02  6.58879504E-01
 -6.84975122E-02 -9.80613840E-03  7.83077538E-02 -1.26817205E-03 -2.61411003E-02
 -1.44084832E-02 -3.30000829E-01 -2.73447646E-02 -1.41041205E-06 -2.47019391E-06
 -2.10968180E-01 -3.59071152E-02 -3.86365852E-01 -2.49648557E-05  3.59728121E-01
  6.11958903E-02  6.58879501E-01  6.84975118E-02  9.80613803E-03 -7.83077536E-02
  1.26817266E-03  2.61411014E-02  1.44084827E-02 -5.90709143E-02 -4.89109294E-03
  5.90709094E-02  4.89109441E-03  3.30000828E-01  2.73447644E-02 -3.89096582E-01
 -3.22701722E-02 -1.56420899E-01 -1.29900332E-02  1.03638444E-06  6.98230656E-07
 -3.27425663E-01  2.52465594E-01  1.55315876E-01 -7.54548446E-06  5.58391018E-01
 -4.30520966E-01 -2.64886572E-01 -3.74367731E-02  6.89199382E-02 -3.14824485E-02
 -4.28043499E-02 -2.81110574E-02  2.80918308E-02 -2.58751307E-01 -2.14733135E-02
 -1.03639588E-06 -6.98779032E-07 -3.27425665E-01  2.52465595E-01  1.55315873E-01
  7.54670595E-06  5.58391022E-01 -4.30520967E-01 -2.64886566E-01  3.74367732E-02
 -6.89199382E-02  3.14824483E-02  4.28043498E-02  2.81110576E-02 -2.80918311E-02
  4.15176622E-01  3.44501596E-02 -4.15176622E-01 -3.44501595E-02  2.58751308E-01
  2.14733124E-02  1.56420897E-01  1.29900344E-02  6.51594800E-02  1.59626623E-01
  1.35062094E-06  1.57685494E-05 -5.96507371E-01  2.65363316E-01 -1.93557509E-01
 -4.41807958E-05  1.56790664E+00 -6.97528590E-01  5.08759440E-01 -3.51158850E-02
  1.63472309E-02  1.87731200E-02 -1.86122119E-03 -5.81748145E-02  4.19418266E-02
 -2.10986111E-01 -5.17032202E-01  1.35124895E-06  1.57644637E-05  5.96507363E-01
 -2.65363324E-01  1.93557513E-01 -4.41644877E-05 -1.56790661E+00  6.97528610E-01
 -5.08759447E-01 -3.51158835E-02  1.63472310E-02  1.87731189E-02 -1.86121984E-03
 -5.81748147E-02  4.19418262E-02  1.45858511E-01  3.57416172E-01  1.45858512E-01
  3.57416172E-01 -2.10986104E-01 -5.17032195E-01  6.51594793E-02  1.59626623E-01
  2.06019472E-01  5.04956077E-01 -6.50279683E-07 -6.83494221E-06  6.95998589E-02
 -2.90066091E-01 -6.12150331E-01 -3.14792296E-05 -1.82961193E-01  7.62493884E-01
  1.60910448E+00 -4.14980359E-02 -1.78707769E-02  5.93650567E-02  4.04875927E-02
  3.09832134E-02  8.53818312E-03 -4.65942048E-02 -1.14165606E-01 -6.49796755E-07
 -6.83811702E-06 -6.95998639E-02  2.90066084E-01  6.12150336E-01 -3.14664862E-05
  1.82961204E-01 -7.62493870E-01 -1.60910450E+00 -4.14980366E-02 -1.78707770E-02
  5.93650579E-02  4.04875933E-02  3.09832124E-02  8.53818208E-03 -1.59427854E-01
 -3.90750659E-01 -1.59427854E-01 -3.90750659E-01 -4.65942057E-02 -1.14165605E-01
  2.06019478E-01  5.04956083E-01 -1.30155550E-01 -2.70204374E-01 -4.83111875E-02
  3.13888131E-01 -3.68691987E-01 -6.38575795E-01  2.60683705E-01 -8.71756114E-01
  8.22475906E-01  1.42453558E+00 -5.81547801E-01  6.83419584E-03 -4.33691850E-02
  1.93895583E-02 -5.02082470E-02  2.04986614E-02  3.55050523E-02 -1.30177006E-01
 -2.70223025E-01  4.83111875E-02 -3.13888131E-01 -3.68691996E-01 -6.38575794E-01
  2.60683693E-01  8.71756114E-01  8.22475932E-01  1.42453558E+00 -5.81547770E-01
 -6.83419512E-03  4.33691849E-02 -1.93895590E-02  5.02082466E-02 -2.04986611E-02
 -3.55050530E-02 -1.30155938E-01 -2.70216695E-01  1.30155938E-01  2.70216693E-01
  1.30177008E-01  2.70223038E-01  1.30155548E-01  2.70204362E-01  2.36398955E-01
 -6.04858867E-01 -1.15628348E-06  2.14584957E-05  5.69339820E-01 -2.06602369E-01
  2.99087553E-01 -5.14587214E-05 -9.08685746E-01  3.29745539E-01 -4.77350232E-01
 -1.29089017E-01  6.65793748E-02  6.25092275E-02 -6.05820729E-02 -4.63254501E-02
 -1.08860659E-02 -5.03087620E-01  1.28721432E+00  1.15650793E-06 -2.14615189E-05
  5.69339823E-01 -2.06602369E-01  2.99087553E-01  5.14638363E-05 -9.08685744E-01
  3.29745537E-01 -4.77350235E-01  1.29089017E-01 -6.65793759E-02 -6.25092270E-02
  6.05820728E-02  4.63254520E-02  1.08860655E-02  2.66662307E-01 -6.82297241E-01
 -2.66662309E-01  6.82297244E-01  5.03087628E-01 -1.28721432E+00 -2.36398951E-01
  6.04858863E-01 -4.44408741E-01  1.13708867E+00  1.48867223E-06 -8.58285963E-06
  1.75347553E-01 -3.30769804E-01 -5.62263239E-01  1.88590731E-05 -2.79862394E-01
  5.27922356E-01  8.97388341E-01  1.09086992E-02  1.06600168E-01 -1.17507739E-01
 -4.06224074E-02  1.46618678E-02  6.22835702E-02  1.74799396E-02 -4.47173378E-02
 -1.48878919E-06  8.58442951E-06  1.75347553E-01 -3.30769804E-01 -5.62263237E-01
 -1.88617278E-05 -2.79862396E-01  5.27922357E-01  8.97388341E-01 -1.09086987E-02
 -1.06600167E-01  1.17507738E-01  4.06224069E-02 -1.46618688E-02 -6.22835703E-02
  4.26946485E-01 -1.09239781E+00 -4.26946483E-01  1.09239780E+00 -1.74799413E-02
  4.47173388E-02  4.44408735E-01 -1.13708867E+00  5.06826687E-01 -3.94905303E-01
  5.43757261E-02 -3.52216413E-01 -1.72691352E-01 -2.99275186E-01  1.22057809E-01
  5.35500718E-01  9.98605525E-02  1.73220857E-01 -7.05836127E-02  5.92994784E-03
 -4.89354472E-02  1.96052051E-02 -5.48896977E-02  2.23798353E-02  3.88035859E-02
  5.06955641E-01 -3.95062503E-01  5.43757261E-02 -3.52216413E-01  1.72691349E-01
  2.99275186E-01 -1.22057813E-01  5.35500718E-01 -9.98605451E-02 -1.73220858E-01
  7.05836219E-02  5.92994696E-03 -4.89354472E-02  1.96052060E-02 -5.48896974E-02
  2.23798348E-02  3.88035863E-02  5.07108381E-01 -3.95346711E-01  5.07108381E-01
 -3.95346712E-01  5.06955639E-01 -3.95062492E-01  5.06826689E-01 -3.94905314E-01
  4.60330973E-01 -6.66738955E-01  4.63732541E-06  2.95524422E-05  3.48433075E-01
 -7.47928039E-02  3.09600890E-01 -7.69986308E-05 -3.53734945E-01  7.59130011E-02
 -3.14287226E-01 -1.25302759E-01  2.23651969E-02  1.02943629E-01  1.24367552E-02
 -8.01020186E-02  6.06536431E-02 -6.41837426E-01  9.29748791E-01  4.63795265E-06
  2.95455105E-05 -3.48433067E-01  7.47928083E-02 -3.09600893E-01 -7.69893208E-05
  3.53734932E-01 -7.59130113E-02  3.14287231E-01 -1.25302757E-01  2.23651947E-02
  1.02943628E-01  1.24367553E-02 -8.01020200E-02  6.06536437E-02  1.81585145E-01
 -2.62984422E-01  1.81585149E-01 -2.62984429E-01 -6.41837417E-01  9.29748776E-01
  4.60330979E-01 -6.66738963E-01  4.75535844E-01 -6.88708649E-01  1.33726361E-05
 -1.07323759E-04 -2.27898127E-01  2.62017815E-01  3.19780951E-01  1.63620932E-04
  2.31325192E-01 -2.66004026E-01 -3.24593725E-01 -2.79391973E-02 -7.83947396E-02
  1.06324914E-01  8.04824562E-02  9.00498212E-02 -3.70960442E-02  1.61061085E-01
 -2.33213923E-01  1.33727644E-05 -1.07325227E-04  2.27898126E-01 -2.62017814E-01
 -3.19780956E-01  1.63622973E-04 -2.31325190E-01  2.66004024E-01  3.24593734E-01
 -2.79391986E-02 -7.83947403E-02  1.06324916E-01  8.04824555E-02  9.00498199E-02
 -3.70960453E-02 -6.36216248E-01  9.21605966E-01 -6.36216248E-01  9.21605966E-01
  1.61061082E-01 -2.33213916E-01  4.75535851E-01 -6.88708661E-01  4.02492666E-01
 -8.32645970E-01  3.75759740E-02 -9.55717421E-01 -1.57435995E-01 -2.72703133E-01
  1.11341656E-01  2.07060541E+00  2.60948680E-01  4.52002213E-01 -1.84545321E-01
 -2.97664971E-02 -5.04494534E-02 -2.45890456E-02 -2.06861364E-02  8.43735070E-03
  1.46248932E-02  4.02471434E-01 -8.32581816E-01 -3.75759740E-02  9.55717421E-01
 -1.57436000E-01 -2.72703133E-01  1.11341650E-01 -2.07060541E+00  2.60948685E-01
  4.52002212E-01 -1.84545315E-01  2.97664956E-02  5.04494535E-02  2.45890470E-02
  2.06861369E-02 -8.43735143E-03 -1.46248924E-02  4.02486361E-01 -8.32629380E-01
 -4.02486360E-01  8.32629379E-01 -4.02471442E-01  8.32581828E-01 -4.02492658E-01
  8.32645959E-01 -1.61338132E-01 -7.97798068E-01 -5.98935074E-02 -1.46002127E+00
  6.21869684E-03  1.07754681E-02 -4.39043210E-03  3.21018040E+00  2.49019230E-01
  4.31183071E-01 -1.76063465E-01 -7.44921804E-02 -1.19593569E-01 -6.32061877E-02
 -4.51095964E-02  1.84102816E-02  3.19049221E-02 -1.61378511E-01 -7.97760179E-01
 -5.98935074E-02 -1.46002127E+00 -6.21869556E-03 -1.07754681E-02  4.39043368E-03
  3.21018040E+00 -2.49019235E-01 -4.31183071E-01  1.76063459E-01 -7.44921812E-02
 -1.19593569E-01 -6.32061870E-02 -4.51095972E-02  1.84102814E-02  3.19049210E-02
 -1.61325539E-01 -7.97766012E-01 -1.61325539E-01 -7.97766012E-01 -1.61378513E-01
 -7.97760181E-01 -1.61338130E-01 -7.97798066E-01 -4.67161571E-01 -4.46417756E-01
 -1.31774977E-01 -1.54483197E+00  1.10881923E-02  1.92447342E-02 -7.85502262E-03
  5.70648912E+00 -6.81480702E-01 -1.18040382E+00  4.81961178E-01 -6.52199885E-02
 -3.06901180E-02 -7.37500847E-02  3.43852987E-02 -1.39375412E-02 -2.43104080E-02
 -4.67181182E-01 -4.46443095E-01  1.31774977E-01  1.54483197E+00  1.10881927E-02
  1.92447342E-02 -7.85502211E-03 -5.70648912E+00 -6.81480695E-01 -1.18040382E+00
  4.81961187E-01  6.52199892E-02  3.06901180E-02  7.37500840E-02 -3.43852995E-02
  1.39375416E-02  2.43104068E-02 -4.67206564E-01 -4.46440544E-01  4.67206564E-01
  4.46440544E-01  4.67181185E-01  4.46443097E-01  4.67161568E-01  4.46417754E-01
  4.25242692E-02  5.17257929E-03 -1.84488282E-05 -2.08804365E-04  7.36457409E-02
 -3.32201117E-02  2.27733259E-02  7.77414107E-04  1.00918603E-01 -4.57271213E-02
  3.12951756E-02  2.78171588E-01 -2.60062682E-01 -1.81286495E-02  3.00835248E-01
 -3.38029984E-01  3.79653696E-01 -1.44125451E-01 -1.77735960E-02  1.84490286E-05
  2.08807914E-04  7.36457412E-02 -3.32201110E-02  2.27733254E-02 -7.77421427E-04
  1.00918601E-01 -4.57271194E-02  3.12951764E-02 -2.78171592E-01  2.60062682E-01
  1.81286528E-02 -3.00835248E-01  3.38029982E-01 -3.79653694E-01  1.01399018E-01
  1.24177507E-02 -1.01399016E-01 -1.24177486E-02  1.44125450E-01  1.77735980E-02
 -4.25242677E-02 -5.17257869E-03  1.41841768E-01  1.74967697E-02  2.10212303E-05
  2.29800271E-04 -7.52069445E-03  3.52812291E-02  7.57945101E-02 -8.60982648E-04
 -1.02233807E-02  4.85671636E-02  1.03887835E-01 -2.15921511E-01  2.76209382E-01
 -6.02650040E-02  2.40023337E-01  3.91469213E-01  3.88043391E-01 -3.39113053E-02
 -4.10696429E-03 -2.10210719E-05 -2.29797456E-04 -7.52069397E-03  3.52812296E-02
  7.57945101E-02  8.60976854E-04 -1.02233823E-02  4.85671654E-02  1.03887837E-01
  2.15921514E-01 -2.76209381E-01  6.02650003E-02 -2.40023339E-01 -3.91469212E-01
 -3.88043392E-01 -1.07690672E-01 -1.31855824E-02  1.07690674E-01  1.31855842E-02
  3.39113064E-02  4.10696457E-03 -1.41841768E-01 -1.74967680E-02  1.96149766E-01
 -4.72606220E-02  2.70247903E-02 -3.82881016E-01  1.24179765E-01  2.15087931E-01
 -8.78177404E-02  5.32971742E-02 -1.68293119E-01 -2.91414795E-01  1.19108908E-01
 -1.12045891E-01  3.34018458E-01 -2.23649906E-01  4.46057254E-01 -1.82189993E-01
 -3.15518303E-01  1.96105697E-01 -4.73204813E-02  2.70247903E-02 -3.82881016E-01
 -1.24179765E-01 -2.15087931E-01  8.78177406E-02  5.32971742E-02  1.68293119E-01
  2.91414794E-01 -1.19108908E-01 -1.12045890E-01  3.34018458E-01 -2.23649907E-01
  4.46057253E-01 -1.82189992E-01 -3.15518304E-01  1.96078061E-01 -4.73390987E-02
  1.96078061E-01 -4.73390986E-02  1.96105698E-01 -4.73204817E-02  1.96149766E-01
 -4.72606216E-02  3.34275346E-01  2.19917970E-01 -4.80900682E-06  4.89874507E-05
  1.73852537E-04 -3.07925225E-03 -7.19412721E-03 -5.49604224E-06 -1.95539709E-02
  3.14844337E-01  7.43420684E-01  3.61758417E-01 -9.80113672E-02 -2.63749295E-01
 -3.87432988E-01 -3.87326169E-01 -3.54300720E-01 -1.03179407E-01 -6.78285520E-02