 Entering Gaussian System, Link 0=g94
 Input=basic.com
 Output=basic.log
 Initial command:
 /usr2/g94/l1.exe /usr2/peo/batch/16883d/g94-16907.inp -scrdir=/usr2/peo/batch/16883d/
 Entering Link 1 = /usr2/g94/l1.exe PID=     16909.
  
       Copyright (c) 1988,1990,1992,1993,1995 Gaussian, Inc.
                     All Rights Reserved.
  
 This is part of the Gaussian 94(TM) system of programs. It is
 based on the the Gaussian 92(TM) system (copyright 1992
 Gaussian, Inc.), the Gaussian 90(TM) system (copyright 1990
 Gaussian, Inc.), the Gaussian 88(TM) system (copyright 1988
 Gaussian, Inc.), the Gaussian 86(TM) system (copyright 1986
 Carnegie Mellon University), and the Gaussian 82(TM) system
 (copyright 1983 Carnegie Mellon University). Gaussian is a
 federally registered trademark of Gaussian, Inc.
  
 This software is provided under written license and may be
 used, copied, transmitted, or stored only in accord with that
 written license.
  
 The following legend is applicable only to US Government
 contracts under DFARS:
  
                    RESTRICTED RIGHTS LEGEND
  
 Use, duplication or disclosure by the US Government is subject
 to restrictions as set forth in subparagraph (c)(1)(ii) of the
 Rights in Technical Data and Computer Software clause at DFARS
 252.227-7013.
  
 Gaussian, Inc.
 Carnegie Office Park, Building 6, Pittsburgh, PA 15106 USA
  
 The following legend is applicable only to US Government
 contracts under FAR:
  
                    RESTRICTED RIGHTS LEGEND
  
 Use, reproduction and disclosure by the US Government is subject
 to restrictions as set forth in subparagraph (c) of the
 Commercial Computer Software - Restricted Rights clause at FAR
 52.227-19.
  
 Gaussian, Inc.
 Carnegie Office Park, Building 6, Pittsburgh, PA 15106 USA
  
 Cite this work as:
 Gaussian 94, Revision D.1,
 M. J. Frisch, G. W. Trucks, H. B. Schlegel, P. M. W. Gill,
 B. G. Johnson, M. A. Robb, J. R. Cheeseman, T. Keith,
 G. A. Petersson, J. A. Montgomery, K. Raghavachari,
 M. A. Al-Laham, V. G. Zakrzewski, J. V. Ortiz, J. B. Foresman,
 J. Cioslowski, B. B. Stefanov, A. Nanayakkara, M. Challacombe,
 C. Y. Peng, P. Y. Ayala, W. Chen, M. W. Wong, J. L. Andres,
 E. S. Replogle, R. Gomperts, R. L. Martin, D. J. Fox,
 J. S. Binkley, D. J. Defrees, J. Baker, J. P. Stewart,
 M. Head-Gordon, C. Gonzalez, and J. A. Pople,
 Gaussian, Inc., Pittsburgh PA, 1995.
  
 ***************************************
 Gaussian 94:  SGI-G94RevD.1  1-Feb-1996
               25-Nov-1996
 ***************************************
 %chk=G92_chk
 %mem=5Mw
 ----------------------------------------------------------------------
 # B3LYP/6-31G* OPT(ReadFC,VTight) Freq=NoRaman NoSym Geom=AllCheck Gue
 ss=Check
 ----------------------------------------------------------------------
 1/7=1,10=3,14=-1,18=20,26=3,29=7,38=1/1,3;
 2/9=110,12=2,15=1/2;
 3/5=1,6=6,7=1,11=2,25=1,30=1,31=1/1,2,3;
 4/5=1/1;
 5/5=2,42=-5/2;
 6/7=2,8=2,9=2,10=2,28=1/1;
 7/30=1/1,2,3,16;
 1/14=-1/3(1);
 99//99;
 2/9=110,15=1/2;
 3/5=1,6=6,7=1,11=2,25=1,30=1,31=1/1,2,3;
 4/5=5,16=2/1;
 5/5=2,38=4,42=-5/2;
 7/30=1/1,2,3,16;
 1/14=-1/3(-5);
 2/9=110,15=1/2;
 3/5=1,6=6,7=1,11=2,25=1,30=1,31=1,39=1/1,3;
 6/7=2,8=2,9=2,10=2,28=1/1;
 99/9=1/99;
 --------------------
 Basic Ethane minimum
 --------------------
 Redundant internal coordinates taken from checkpointfile:
 G92_chk.chk
    Charge = 0 Multiplicity = 1
 H,0,0.017955823,0.0310725638,-0.0028767735
 C,0,-0.0001437145,-0.0002338533,1.0900849234
 H,0,1.0363472574,0.0310703486,1.4373678669
 C,0,-0.7215771787,-1.2498222939,1.6002482323
 H,0,-0.4912686901,0.9130327105,1.4373865488
 H,0,-0.2304522016,-2.1630888558,1.2529466042
 H,0,-1.7580681484,-1.2811264999,1.2529652828
 H,0,-0.7396767151,-1.2811287151,2.6932099291

 GradGradGradGradGradGradGradGradGradGradGradGradGradGradGradGradGradGrad
 Berny optimization.
 Initialization pass.
 Force constant matrix read from checkpoint file:
 G92_chk.chk
                         ----------------------------
                         !    Initial Parameters    !
                         ! (Angstroms and Degrees)  !
 ------------------------                            -------------------------
 ! Name  Definition              Value          Derivative Info.             !
 -----------------------------------------------------------------------------
 ! R1    R(2,1)                  1.0936         D2E/DX2 =    0.333           !
 ! R2    R(3,2)                  1.0936         D2E/DX2 =    0.333           !
 ! R3    R(4,2)                  1.5304         D2E/DX2 =    0.2835          !
 ! R4    R(5,2)                  1.0936         D2E/DX2 =    0.333           !
 ! R5    R(6,4)                  1.0936         D2E/DX2 =    0.333           !
 ! R6    R(7,4)                  1.0936         D2E/DX2 =    0.333           !
 ! R7    R(8,4)                  1.0936         D2E/DX2 =    0.333           !
 ! A1    A(1,2,3)              107.5109         D2E/DX2 =    0.0516          !
 ! A2    A(1,2,4)              111.3671         D2E/DX2 =    0.1019          !
 ! A3    A(3,2,4)              111.3646         D2E/DX2 =    0.1019          !
 ! A4    A(1,2,5)              107.514          D2E/DX2 =    0.0516          !
 ! A5    A(3,2,5)              107.5118         D2E/DX2 =    0.0516          !
 ! A6    A(4,2,5)              111.365          D2E/DX2 =    0.102           !
 ! A7    A(2,4,6)              111.365          D2E/DX2 =    0.102           !
 ! A8    A(2,4,7)              111.3646         D2E/DX2 =    0.1019          !
 ! A9    A(6,4,7)              107.5118         D2E/DX2 =    0.0516          !
 ! A10   A(2,4,8)              111.3671         D2E/DX2 =    0.1019          !
 ! A11   A(6,4,8)              107.514          D2E/DX2 =    0.0516          !
 ! A12   A(7,4,8)              107.5109         D2E/DX2 =    0.0516          !
 ! D1    D(6,4,2,1)             59.9971         D2E/DX2 =    0.0146          !
 ! D2    D(6,4,2,3)            -60.0016         D2E/DX2 =    0.0146          !
 ! D3    D(6,4,2,5)            180.             D2E/DX2 =    0.0138          !
 ! D4    D(7,4,2,1)            -60.0013         D2E/DX2 =    0.0146          !
 ! D5    D(7,4,2,3)           -180.             D2E/DX2 =    0.0138          !
 ! D6    D(7,4,2,5)             60.0016         D2E/DX2 =    0.0146          !
 ! D7    D(8,4,2,1)            180.             D2E/DX2 =    0.0138          !
 ! D8    D(8,4,2,3)             60.0013         D2E/DX2 =    0.0146          !
 ! D9    D(8,4,2,5)            -59.9971         D2E/DX2 =    0.0146          !
 -----------------------------------------------------------------------------
 Trust Radius=3.00D-01 FncErr=1.00D-07 GrdErr=1.00D-06
 Number of steps in this run=  38 maximum allowed number of steps= 100.
 GradGradGradGradGradGradGradGradGradGradGradGradGradGradGradGradGradGrad

                   Input orientation:
 ----------------------------------------------------------
 Center     Atomic              Coordinates (Angstroms)
 Number     Number             X           Y           Z
 ----------------------------------------------------------
    1          1           0.017956    0.031073   -0.002877
    2          6          -0.000144   -0.000234    1.090085
    3          1           1.036347    0.031070    1.437368
    4          6          -0.721577   -1.249822    1.600248
    5          1          -0.491269    0.913033    1.437387
    6          1          -0.230452   -2.163089    1.252947
    7          1          -1.758068   -1.281126    1.252965
    8          1          -0.739677   -1.281129    2.693210
 ----------------------------------------------------------
                    Distance matrix (angstroms):
              1          2          3          4          5
  1  H    0.000000
  2  C    1.093560   0.000000
  3  H    1.763923   1.093572   0.000000
  4  C    2.181195   1.530426   2.181173   0.000000
  5  H    1.763951   1.093562   1.763935   2.181171   0.000000
  6  H    2.540304   2.181171   2.540301   1.093562   3.092663
  7  H    2.540328   2.181173   3.092672   1.093572   2.540301
  8  H    3.092695   2.181195   2.540328   1.093560   2.540304
              6          7          8
  6  H    0.000000
  7  H    1.763935   0.000000
  8  H    1.763951   1.763923   0.000000
 Symmetry turned off by external request.
 Stoichiometry    C2H6
 Framework group  CI[X(C2H6)]
 Deg. of freedom    9
 Full point group                 CI      NOp   2
 Rotational constants (GHZ):     80.5816652     19.9151678     19.9150799
 Isotopes: H-1,C-12,H-1,C-12,H-1,H-1,H-1,H-1
 Standard basis: 6-31G(d) (6D, 7F)
 Integral buffers will be    262144 words long.
 Raffenetti 2 integral format.
 Two-electron integral symmetry is turned off.
    42 basis functions       80 primitive gaussians
     9 alpha electrons        9 beta electrons
       nuclear repulsion energy        42.1653687127 Hartrees.
 One-electron integrals computed using PRISM.
 The smallest eigenvalue of the overlap matrix is  8.458D-03
 Initial guess read from the checkpoint file:
 G92_chk.chk
 Initial guess orbital symmetries:
       Occupied  (AG) (AU) (AG) (AU) (AU) (AU) (AG) (AG) (AG)
       Virtual   (AG) (AU) (AU) (AU) (AG) (AG) (AU) (AU) (AU) (AG)
                 (AG) (AG) (AU) (AG) (AG) (AG) (AU) (AU) (AU) (AG)
                 (AU) (AU) (AU) (AG) (AG) (AU) (AU) (AU) (AG) (AG)
                 (AG) (AG) (AU)
 Requested convergence on RMS density matrix=1.00D-08 within  64 cycles.
 Requested convergence on MAX density matrix=1.00D-06.
 Keep R1 and R2 integrals in memory in canonical form, NReq=     1264865.
 SCF Done:  E(RB+HF-LYP) =  -79.8303916092     A.U. after    7 cycles
             Convg  =    0.6700D-08             -V/T =  2.0106
             S**2   =   0.0000

 **********************************************************************

            Population analysis using the SCF density.

 **********************************************************************

 Orbital Symmetries:
       Occupied  (AG) (AU) (AG) (AU) (AU) (AU) (AG) (AG) (AG)
       Virtual   (AG) (AU) (AU) (AU) (AG) (AG) (AU) (AG) (AU) (AU)
                 (AG) (AG) (AU) (AU) (AU) (AG) (AG) (AG) (AU) (AG)
                 (AU) (AU) (AU) (AG) (AG) (AG) (AU) (AU) (AG) (AG)
                 (AU) (AG) (AU)
  The electronic state is 1-AG.
 Alpha  occ. eigenvalues --  -10.17146 -10.17125  -0.74786  -0.61278  -0.43047
 Alpha  occ. eigenvalues --   -0.43046  -0.36290  -0.34045  -0.34044
 Alpha virt. eigenvalues --    0.10531   0.15666   0.16468   0.16468   0.19083
 Alpha virt. eigenvalues --    0.19084   0.24282   0.51303   0.54301   0.54302
 Alpha virt. eigenvalues --    0.63618   0.63620   0.66901   0.88480   0.88480
 Alpha virt. eigenvalues --    0.90992   0.92137   0.92138   0.98240   1.06679
 Alpha virt. eigenvalues --    1.44012   1.52622   1.52624   1.93329   1.98130
 Alpha virt. eigenvalues --    1.98133   2.27422   2.27423   2.33610   2.33613
 Alpha virt. eigenvalues --    2.58762   4.14670   4.36703
          Condensed to atoms (all electrons):
              1          2          3          4          5          6
  1  H    0.574313   0.383220  -0.032509  -0.034521  -0.032505  -0.003641
  2  C    0.383220   5.011040   0.383218   0.376728   0.383221  -0.034525
  3  H   -0.032509   0.383218   0.574325  -0.034525  -0.032507  -0.003642
  4  C   -0.034521   0.376728  -0.034525   5.011040  -0.034525   0.383221
  5  H   -0.032505   0.383221  -0.032507  -0.034525   0.574312   0.004665
  6  H   -0.003641  -0.034525  -0.003642   0.383221   0.004665   0.574312
  7  H   -0.003642  -0.034525   0.004665   0.383218  -0.003642  -0.032507
  8  H    0.004665  -0.034521  -0.003642   0.383220  -0.003641  -0.032505
              7          8
  1  H   -0.003642   0.004665
  2  C   -0.034525  -0.034521
  3  H    0.004665  -0.003642
  4  C    0.383218   0.383220
  5  H   -0.003642  -0.003641
  6  H   -0.032507  -0.032505
  7  H    0.574325  -0.032509
  8  H   -0.032509   0.574313
 Total atomic charges:
              1
  1  H    0.144620
  2  C   -0.433856
  3  H    0.144615
  4  C   -0.433856
  5  H    0.144621
  6  H    0.144621
  7  H    0.144615
  8  H    0.144620
 Sum of Mulliken charges=   0.00000
 Atomic charges with hydrogens summed into heavy atoms:
              1
  1  H    0.000000
  2  C    0.000000
  3  H    0.000000
  4  C    0.000000
  5  H    0.000000
  6  H    0.000000
  7  H    0.000000
  8  H    0.000000
 Sum of Mulliken charges=   0.00000
 Electronic spatial extent (au):  <R**2>=   259.2942
 Charge=     0.0000 electrons
 Dipole moment (Debye):
    X=     0.0000    Y=     0.0000    Z=     0.0000  Tot=     0.0000
 Quadrupole moment (Debye-Ang):
   XX=   -14.8174   YY=   -15.0430   ZZ=   -14.7609
   XY=    -0.1954   XZ=     0.0796   YZ=     0.1382
 Octapole moment (Debye-Ang**2):
  XXX=    16.0411  YYY=    28.2068  ZZZ=   -59.5676  XYY=     5.6727
  XXY=     9.4023  XXZ=   -19.9894  XZZ=     5.5409  YZZ=     9.5977
  YYZ=   -20.4080  XYZ=    -0.3625
 Hexadecapole moment (Debye-Ang**3):
 XXXX=   -52.4186 YYYY=  -104.3026 ZZZZ=  -193.9641 XXXY=   -21.2681
 XXXZ=    27.3534 YYYX=   -23.6653 YYYZ=    47.4797 ZZZX=    26.2727
 ZZZY=    45.5071 XXYY=   -27.0429 XXZZ=   -42.4677 YYZZ=   -51.5291
 XXYZ=    15.8265 YYXZ=     9.1964 ZZXY=    -7.8470
 N-N= 4.216536871269D+01 E-N=-2.681515246382D+02  KE= 7.899504854349D+01
 -------------------------------------------------------------------
 Center     Atomic                   Forces (Hartrees/Bohr)
 Number     Number              X              Y              Z
 -------------------------------------------------------------------
    1          1          -0.000009262   -0.000019873   -0.001712815
    2          6          -0.000695109   -0.001207141    0.000494052
    3          1           0.001610209   -0.000018898    0.000580514
    4          6           0.000695109    0.001207141   -0.000494052
    5          1          -0.000822863    0.001386391    0.000578232
    6          1           0.000822864   -0.001386391   -0.000578232
    7          1          -0.001610209    0.000018898   -0.000580513
    8          1           0.000009262    0.000019873    0.001712814
 -------------------------------------------------------------------
 Cartesian Forces:  Max     0.001712815 RMS     0.000956658
 Internal  Forces:  Max     0.001711446 RMS     0.000794227

 GradGradGradGradGradGradGradGradGradGradGradGradGradGradGradGradGradGrad
 Berny optimization.
 Search for a local minimum.
 Step number   1 out of a maximum of  38
 All quantities printed in internal units (Hartrees-Bohrs-Radians)
 Second derivative matrix not updated -- first step.
     Eigenvalues ---    0.00222   0.04478   0.04479   0.04660   0.04662
     Eigenvalues ---    0.11855   0.12293   0.12322   0.12378   0.17594
     Eigenvalues ---    0.17601   0.29977   0.32922   0.32926   0.33200
     Eigenvalues ---    0.33204   0.34098   0.343211000.000001000.00000
     Eigenvalues --- 1000.000001000.000001000.000001000.000001000.00000
     Eigenvalues --- 1000.000001000.000001000.00000
 RFO step:  Lambda=-5.17745144D-05.
 Linear search not attempted -- first point.
 Iteration  1 RMS(Cart)=  0.00234362 RMS(Int)=  0.00000040
 Iteration  2 RMS(Cart)=  0.00000056 RMS(Int)=  0.00000002
 TrRot=  0.000000  0.000000  0.000000  0.000000  0.000000  0.000000
 Variable       Old X    -DE/DX   Delta X   Delta X   Delta X     New X
                                 (Linear)    (Quad)   (Total)
    R1        2.06653   0.00171   0.00000   0.00502   0.00502   2.07155
    R2        2.06655   0.00171   0.00000   0.00502   0.00502   2.07157
    R3        2.89209   0.00017   0.00000   0.00015   0.00015   2.89223
    R4        2.06653   0.00171   0.00000   0.00502   0.00502   2.07155
    R5        2.06653   0.00171   0.00000   0.00502   0.00502   2.07155
    R6        2.06655   0.00171   0.00000   0.00502   0.00502   2.07157
    R7        2.06653   0.00171   0.00000   0.00502   0.00502   2.07155
    A1        1.87642   0.00008   0.00000   0.00024   0.00024   1.87666
    A2        1.94372  -0.00008   0.00000  -0.00023  -0.00023   1.94349
    A3        1.94368  -0.00008   0.00000  -0.00023  -0.00023   1.94345
    A4        1.87647   0.00008   0.00000   0.00024   0.00024   1.87671
    A5        1.87643   0.00008   0.00000   0.00026   0.00026   1.87669
    A6        1.94369  -0.00008   0.00000  -0.00023  -0.00023   1.94346
    A7        1.94369  -0.00008   0.00000  -0.00023  -0.00023   1.94346
    A8        1.94368  -0.00008   0.00000  -0.00023  -0.00023   1.94345
    A9        1.87643   0.00008   0.00000   0.00026   0.00026   1.87669
   A10        1.94372  -0.00008   0.00000  -0.00023  -0.00023   1.94349
   A11        1.87647   0.00008   0.00000   0.00024   0.00024   1.87671
   A12        1.87642   0.00008   0.00000   0.00024   0.00024   1.87666
    D1        1.04715   0.00000   0.00000   0.00001   0.00001   1.04716
    D2       -1.04722   0.00000   0.00000   0.00002   0.00002  -1.04721
    D3        3.14159   0.00000   0.00000   0.00000   0.00000   3.14159
    D4       -1.04722   0.00000   0.00000  -0.00001  -0.00001  -1.04723
    D5       -3.14159   0.00000   0.00000   0.00000   0.00000  -3.14159
    D6        1.04722   0.00000   0.00000  -0.00002  -0.00002   1.04721
    D7        3.14159   0.00000   0.00000   0.00000   0.00000   3.14159
    D8        1.04722   0.00000   0.00000   0.00001   0.00001   1.04723
    D9       -1.04715   0.00000   0.00000  -0.00001  -0.00001  -1.04716
         Item               Value     Threshold  Converged?
 Maximum Force            0.001711     0.000002     NO 
 RMS     Force            0.000794     0.000001     NO 
 Maximum Displacement     0.005053     0.000006     NO 
 RMS     Displacement     0.002344     0.000004     NO 
 Predicted change in Energy=-2.587940D-05
 GradGradGradGradGradGradGradGradGradGradGradGradGradGradGradGradGradGrad

                   Input orientation:
 ----------------------------------------------------------
 Center     Atomic              Coordinates (Angstroms)
 Number     Number             X           Y           Z
 ----------------------------------------------------------
    1          1           0.017893    0.030964   -0.005551
    2          6          -0.000124   -0.000201    1.090074
    3          1           1.038850    0.030955    1.438317
    4          6          -0.721597   -1.249855    1.600259
    5          1          -0.492621    0.915144    1.438336
    6          1          -0.229100   -2.165200    1.251997
    7          1          -1.760571   -1.281011    1.252016
    8          1          -0.739614   -1.281020    2.695884
 ----------------------------------------------------------
                    Distance matrix (angstroms):
              1          2          3          4          5
  1  H    0.000000
  2  C    1.096216   0.000000
  3  H    1.768363   1.096226   0.000000
  4  C    2.183109   1.530505   2.183087   0.000000
  5  H    1.768391   1.096219   1.768387   2.183087   0.000000
  6  H    2.542748   2.183087   2.542736   1.096219   3.097206
  7  H    2.542771   2.183087   3.097212   1.096226   2.542736
  8  H    3.097235   2.183109   2.542771   1.096216   2.542748
              6          7          8
  6  H    0.000000
  7  H    1.768387   0.000000
  8  H    1.768391   1.768363   0.000000
 Symmetry turned off by external request.
 Stoichiometry    C2H6
 Framework group  C1[X(C2H6)]
 Deg. of freedom   18
 Full point group                 C1      NOp   1
 Rotational constants (GHZ):     80.1771435     19.8931396     19.8930426
 Isotopes: H-1,C-12,H-1,C-12,H-1,H-1,H-1,H-1
 Standard basis: 6-31G(d) (6D, 7F)
 Integral buffers will be    262144 words long.
 Raffenetti 2 integral format.
 Two-electron integral symmetry is turned off.
    42 basis functions       80 primitive gaussians
     9 alpha electrons        9 beta electrons
       nuclear repulsion energy        42.1083877751 Hartrees.
 One-electron integrals computed using PRISM.
 The smallest eigenvalue of the overlap matrix is  8.488D-03
 Initial guess read from the read-write file:
 Requested convergence on RMS density matrix=1.00D-08 within  64 cycles.
 Requested convergence on MAX density matrix=1.00D-06.
 Keep R1 and R2 integrals in memory in canonical form, NReq=     1264865.
 SCF Done:  E(RB+HF-LYP) =  -79.8304168803     A.U. after    6 cycles
             Convg  =    0.7310D-08             -V/T =  2.0108
             S**2   =   0.0000
 -------------------------------------------------------------------
 Center     Atomic                   Forces (Hartrees/Bohr)
 Number     Number              X              Y              Z
 -------------------------------------------------------------------
    1          1           0.000000738   -0.000002580    0.000035872
    2          6           0.000019502    0.000033449   -0.000014377
    3          1          -0.000034498   -0.000000477   -0.000010861
    4          6          -0.000019503   -0.000033450    0.000014376
    5          1           0.000016115   -0.000030233   -0.000013695
    6          1          -0.000016114    0.000030233    0.000013696
    7          1           0.000034497    0.000000478    0.000010862
    8          1          -0.000000738    0.000002580   -0.000035872
 -------------------------------------------------------------------
 Cartesian Forces:  Max     0.000035872 RMS     0.000021736
 Internal  Forces:  Max     0.000036412 RMS     0.000016810

 GradGradGradGradGradGradGradGradGradGradGradGradGradGradGradGradGradGrad
 Berny optimization.
 Search for a local minimum.
 Step number   2 out of a maximum of  38
 All quantities printed in internal units (Hartrees-Bohrs-Radians)
 Update second derivatives using information from points  1  2
 Trust test= 9.76D-01 RLast= 1.23D-02 DXMaxT set to 3.00D-01
     Eigenvalues ---    0.00222   0.04478   0.04479   0.04660   0.04662
     Eigenvalues ---    0.11856   0.12293   0.12322   0.12378   0.17594
     Eigenvalues ---    0.17601   0.30013   0.32922   0.32926   0.33200
     Eigenvalues ---    0.33204   0.34098   0.350081000.000001000.00000
     Eigenvalues --- 1000.000001000.000001000.000001000.000001000.00000
     Eigenvalues --- 1000.000001000.000001000.00000
 RFO step:  Lambda= 0.00000000D+00.
 Quartic linear search produced a step of -0.02084.
 Iteration  1 RMS(Cart)=  0.00004721 RMS(Int)=  0.00000000
 Iteration  2 RMS(Cart)=  0.00000000 RMS(Int)=  0.00000000
 TrRot=  0.000000  0.000000  0.000000  0.000000  0.000000  0.000000
 Variable       Old X    -DE/DX   Delta X   Delta X   Delta X     New X
                                 (Linear)    (Quad)   (Total)
    R1        2.07155  -0.00004  -0.00010   0.00000  -0.00011   2.07144
    R2        2.07157  -0.00004  -0.00010   0.00000  -0.00011   2.07146
    R3        2.89223   0.00000   0.00000   0.00003   0.00003   2.89226
    R4        2.07155  -0.00004  -0.00010   0.00000  -0.00011   2.07145
    R5        2.07155  -0.00004  -0.00010   0.00000  -0.00011   2.07145
    R6        2.07157  -0.00004  -0.00010   0.00000  -0.00011   2.07146
    R7        2.07155  -0.00004  -0.00010   0.00000  -0.00011   2.07144
    A1        1.87666   0.00000  -0.00001   0.00002   0.00001   1.87667
    A2        1.94349   0.00000   0.00000  -0.00001  -0.00001   1.94348
    A3        1.94345   0.00000   0.00000  -0.00001  -0.00001   1.94344
    A4        1.87671   0.00000  -0.00001   0.00001   0.00001   1.87672
    A5        1.87669   0.00000  -0.00001   0.00001   0.00001   1.87670
    A6        1.94346   0.00000   0.00000  -0.00001  -0.00001   1.94345
    A7        1.94346   0.00000   0.00000  -0.00001  -0.00001   1.94345
    A8        1.94345   0.00000   0.00000  -0.00001  -0.00001   1.94344
    A9        1.87669   0.00000  -0.00001   0.00001   0.00001   1.87670
   A10        1.94349   0.00000   0.00000  -0.00001  -0.00001   1.94348
   A11        1.87671   0.00000  -0.00001   0.00001   0.00001   1.87672
   A12        1.87666   0.00000  -0.00001   0.00002   0.00001   1.87667
    D1        1.04716   0.00000   0.00000   0.00000   0.00000   1.04716
    D2       -1.04721   0.00000   0.00000   0.00000   0.00000  -1.04721
    D3        3.14159   0.00000   0.00000   0.00000   0.00000   3.14159
    D4       -1.04723   0.00000   0.00000   0.00000   0.00000  -1.04723
    D5       -3.14159   0.00000   0.00000   0.00000   0.00000  -3.14159
    D6        1.04721   0.00000   0.00000   0.00000   0.00000   1.04721
    D7        3.14159   0.00000   0.00000   0.00000   0.00000   3.14159
    D8        1.04723   0.00000   0.00000   0.00000   0.00000   1.04723
    D9       -1.04716   0.00000   0.00000   0.00000   0.00000  -1.04716
         Item               Value     Threshold  Converged?
 Maximum Force            0.000036     0.000002     NO 
 RMS     Force            0.000017     0.000001     NO 
 Maximum Displacement     0.000101     0.000006     NO 
 RMS     Displacement     0.000047     0.000004     NO 
 Predicted change in Energy=-1.168275D-08
 GradGradGradGradGradGradGradGradGradGradGradGradGradGradGradGradGradGrad

                   Input orientation:
 ----------------------------------------------------------
 Center     Atomic              Coordinates (Angstroms)
 Number     Number             X           Y           Z
 ----------------------------------------------------------
    1          1           0.017890    0.030959   -0.005497
    2          6          -0.000121   -0.000196    1.090072
    3          1           1.038799    0.030951    1.438302
    4          6          -0.721600   -1.249860    1.600261
    5          1          -0.492598    0.915097    1.438321
    6          1          -0.229122   -2.165153    1.252012
    7          1          -1.760520   -1.281007    1.252031
    8          1          -0.739611   -1.281015    2.695830
 ----------------------------------------------------------
                    Distance matrix (angstroms):
              1          2          3          4          5
  1  H    0.000000
  2  C    1.096160   0.000000
  3  H    1.768279   1.096170   0.000000
  4  C    2.183072   1.530518   2.183051   0.000000
  5  H    1.768307   1.096162   1.768302   2.183050   0.000000
  6  H    2.542686   2.183050   2.542676   1.096162   3.097107
  7  H    2.542710   2.183051   3.097114   1.096170   2.542676
  8  H    3.097137   2.183072   2.542710   1.096160   2.542686
              6          7          8
  6  H    0.000000
  7  H    1.768302   0.000000
  8  H    1.768307   1.768279   0.000000
 Symmetry turned off by external request.
 Stoichiometry    C2H6
 Framework group  CI[X(C2H6)]
 Deg. of freedom    9
 Full point group                 CI      NOp   2
 Rotational constants (GHZ):     80.1848172     19.8934224     19.8933283
 Isotopes: H-1,C-12,H-1,C-12,H-1,H-1,H-1,H-1
 Standard basis: 6-31G(d) (6D, 7F)
 Integral buffers will be    262144 words long.
 Raffenetti 2 integral format.
 Two-electron integral symmetry is turned off.
    42 basis functions       80 primitive gaussians
     9 alpha electrons        9 beta electrons
       nuclear repulsion energy        42.1094447337 Hartrees.
 One-electron integrals computed using PRISM.
 The smallest eigenvalue of the overlap matrix is  8.488D-03
 Initial guess read from the read-write file:
 Initial guess orbital symmetries:
       Occupied  (AG) (AU) (AG) (AU) (AU) (AU) (AG) (AG) (AG)
       Virtual   (AG) (AU) (AU) (AU) (AG) (AG) (AU) (AG) (AU) (AU)
                 (AG) (AG) (AU) (AU) (AU) (AG) (AG) (AG) (AU) (AG)
                 (AU) (AU) (AU) (AG) (AG) (AG) (AU) (AU) (AG) (AG)
                 (AU) (AG) (AU)
 Requested convergence on RMS density matrix=1.00D-08 within  64 cycles.
 Requested convergence on MAX density matrix=1.00D-06.
 Keep R1 and R2 integrals in memory in canonical form, NReq=     1264865.
 SCF Done:  E(RB+HF-LYP) =  -79.8304168919     A.U. after    5 cycles
             Convg  =    0.1303D-08             -V/T =  2.0108
             S**2   =   0.0000
 -------------------------------------------------------------------
 Center     Atomic                   Forces (Hartrees/Bohr)
 Number     Number              X              Y              Z
 -------------------------------------------------------------------
    1          1           0.000001336   -0.000001606   -0.000000447
    2          6          -0.000000033   -0.000000593   -0.000000279
    3          1          -0.000000202    0.000000425    0.000000592
    4          6           0.000000033    0.000000593    0.000000278
    5          1          -0.000000329    0.000000138   -0.000002147
    6          1           0.000000330   -0.000000138    0.000002147
    7          1           0.000000202   -0.000000425   -0.000000592
    8          1          -0.000001336    0.000001606    0.000000447
 -------------------------------------------------------------------
 Cartesian Forces:  Max     0.000002147 RMS     0.000000927
 Internal  Forces:  Max     0.000000212 RMS     0.000000060

 GradGradGradGradGradGradGradGradGradGradGradGradGradGradGradGradGradGrad
 Berny optimization.
 Search for a local minimum.
 Step number   3 out of a maximum of  38
 All quantities printed in internal units (Hartrees-Bohrs-Radians)
 Update second derivatives using information from points  1  3
 Trust test= 9.92D-01 RLast= 2.64D-04 DXMaxT set to 3.00D-01
     Eigenvalues ---    0.00222   0.04478   0.04479   0.04660   0.04662
     Eigenvalues ---    0.11856   0.12293   0.12322   0.12378   0.17594
     Eigenvalues ---    0.17601   0.30013   0.32922   0.32926   0.33200
     Eigenvalues ---    0.33204   0.34098   0.350131000.000001000.00000
     Eigenvalues --- 1000.000001000.000001000.000001000.000001000.00000
     Eigenvalues --- 1000.000001000.000001000.00000
 RFO step:  Lambda= 0.00000000D+00.
 Quartic linear search produced a step of -0.00069.
 Iteration  1 RMS(Cart)=  0.00000037 RMS(Int)=  0.00000001
 TrRot=  0.000000  0.000000  0.000000  0.000000  0.000000  0.000000
 Variable       Old X    -DE/DX   Delta X   Delta X   Delta X     New X
                                 (Linear)    (Quad)   (Total)
    R1        2.07144   0.00000   0.00000   0.00000   0.00000   2.07144
    R2        2.07146   0.00000   0.00000   0.00000   0.00000   2.07146
    R3        2.89226   0.00000   0.00000   0.00000   0.00000   2.89226
    R4        2.07145   0.00000   0.00000   0.00000   0.00000   2.07145
    R5        2.07145   0.00000   0.00000   0.00000   0.00000   2.07145
    R6        2.07146   0.00000   0.00000   0.00000   0.00000   2.07146
    R7        2.07144   0.00000   0.00000   0.00000   0.00000   2.07144
    A1        1.87667   0.00000   0.00000   0.00000   0.00000   1.87667
    A2        1.94348   0.00000   0.00000   0.00000   0.00000   1.94348
    A3        1.94344   0.00000   0.00000   0.00000   0.00000   1.94344
    A4        1.87672   0.00000   0.00000   0.00000   0.00000   1.87672
    A5        1.87670   0.00000   0.00000   0.00000   0.00000   1.87670
    A6        1.94345   0.00000   0.00000   0.00000   0.00000   1.94345
    A7        1.94345   0.00000   0.00000   0.00000   0.00000   1.94345
    A8        1.94344   0.00000   0.00000   0.00000   0.00000   1.94344
    A9        1.87670   0.00000   0.00000   0.00000   0.00000   1.87670
   A10        1.94348   0.00000   0.00000   0.00000   0.00000   1.94348
   A11        1.87672   0.00000   0.00000   0.00000   0.00000   1.87672
   A12        1.87667   0.00000   0.00000   0.00000   0.00000   1.87667
    D1        1.04716   0.00000   0.00000   0.00000   0.00000   1.04716
    D2       -1.04721   0.00000   0.00000   0.00000   0.00000  -1.04721
    D3        3.14159   0.00000   0.00000   0.00000   0.00000   3.14159
    D4       -1.04723   0.00000   0.00000   0.00000   0.00000  -1.04723
    D5       -3.14159   0.00000   0.00000   0.00000   0.00000  -3.14159
    D6        1.04721   0.00000   0.00000   0.00000   0.00000   1.04721
    D7        3.14159   0.00000   0.00000   0.00000   0.00000   3.14159
    D8        1.04723   0.00000   0.00000   0.00000   0.00000   1.04723
    D9       -1.04716   0.00000   0.00000   0.00000   0.00000  -1.04716
         Item               Value     Threshold  Converged?
 Maximum Force            0.000000     0.000002     YES
 RMS     Force            0.000000     0.000001     YES
 Maximum Displacement     0.000001     0.000006     YES
 RMS     Displacement     0.000000     0.000004     YES
 Predicted change in Energy=-3.837250D-13
 Optimization completed.
    -- Stationary point found.
                         ----------------------------
                         !   Optimized Parameters   !
                         ! (Angstroms and Degrees)  !
 ------------------------                            -------------------------
 ! Name  Definition              Value          Derivative Info.             !
 -----------------------------------------------------------------------------
 ! R1    R(2,1)                  1.0962         -DE/DX =    0.               !
 ! R2    R(3,2)                  1.0962         -DE/DX =    0.               !
 ! R3    R(4,2)                  1.5305         -DE/DX =    0.               !
 ! R4    R(5,2)                  1.0962         -DE/DX =    0.               !
 ! R5    R(6,4)                  1.0962         -DE/DX =    0.               !
 ! R6    R(7,4)                  1.0962         -DE/DX =    0.               !
 ! R7    R(8,4)                  1.0962         -DE/DX =    0.               !
 ! A1    A(1,2,3)              107.5253         -DE/DX =    0.               !
 ! A2    A(1,2,4)              111.3532         -DE/DX =    0.               !
 ! A3    A(3,2,4)              111.3509         -DE/DX =    0.               !
 ! A4    A(1,2,5)              107.5283         -DE/DX =    0.               !
 ! A5    A(3,2,5)              107.5272         -DE/DX =    0.               !
 ! A6    A(4,2,5)              111.3513         -DE/DX =    0.               !
 ! A7    A(2,4,6)              111.3513         -DE/DX =    0.               !
 ! A8    A(2,4,7)              111.3509         -DE/DX =    0.               !
 ! A9    A(6,4,7)              107.5272         -DE/DX =    0.               !
 ! A10   A(2,4,8)              111.3532         -DE/DX =    0.               !
 ! A11   A(6,4,8)              107.5283         -DE/DX =    0.               !
 ! A12   A(7,4,8)              107.5253         -DE/DX =    0.               !
 ! D1    D(6,4,2,1)             59.9976         -DE/DX =    0.               !
 ! D2    D(6,4,2,3)            -60.0007         -DE/DX =    0.               !
 ! D3    D(6,4,2,5)            180.             -DE/DX =    0.               !
 ! D4    D(7,4,2,1)            -60.0017         -DE/DX =    0.               !
 ! D5    D(7,4,2,3)           -180.             -DE/DX =    0.               !
 ! D6    D(7,4,2,5)             60.0007         -DE/DX =    0.               !
 ! D7    D(8,4,2,1)            180.             -DE/DX =    0.               !
 ! D8    D(8,4,2,3)             60.0017         -DE/DX =    0.               !
 ! D9    D(8,4,2,5)            -59.9976         -DE/DX =    0.               !
 -----------------------------------------------------------------------------
 GradGradGradGradGradGradGradGradGradGradGradGradGradGradGradGradGradGrad

                   Input orientation:
 ----------------------------------------------------------
 Center     Atomic              Coordinates (Angstroms)
 Number     Number             X           Y           Z
 ----------------------------------------------------------
    1          1           0.017890    0.030959   -0.005497
    2          6          -0.000121   -0.000196    1.090072
    3          1           1.038799    0.030951    1.438302
    4          6          -0.721600   -1.249860    1.600261
    5          1          -0.492598    0.915097    1.438321
    6          1          -0.229122   -2.165153    1.252012
    7          1          -1.760520   -1.281007    1.252031
    8          1          -0.739611   -1.281015    2.695830
 ----------------------------------------------------------
                    Distance matrix (angstroms):
              1          2          3          4          5
  1  H    0.000000
  2  C    1.096160   0.000000
  3  H    1.768279   1.096170   0.000000
  4  C    2.183072   1.530518   2.183051   0.000000
  5  H    1.768307   1.096162   1.768302   2.183050   0.000000
  6  H    2.542686   2.183050   2.542676   1.096162   3.097107
  7  H    2.542710   2.183051   3.097114   1.096170   2.542676
  8  H    3.097137   2.183072   2.542710   1.096160   2.542686
              6          7          8
  6  H    0.000000
  7  H    1.768302   0.000000
  8  H    1.768307   1.768279   0.000000
 Symmetry turned off by external request.
 Stoichiometry    C2H6
 Framework group  CI[X(C2H6)]
 Deg. of freedom    9
 Full point group                 CI      NOp   2
 Rotational constants (GHZ):     80.1848172     19.8934224     19.8933283
 Isotopes: H-1,C-12,H-1,C-12,H-1,H-1,H-1,H-1
 Standard basis: 6-31G(d) (6D, 7F)
 Integral buffers will be    262144 words long.
 Raffenetti 2 integral format.
 Two-electron integral symmetry is turned off.
    42 basis functions       80 primitive gaussians
     9 alpha electrons        9 beta electrons
       nuclear repulsion energy        42.1094447337 Hartrees.

 **********************************************************************

            Population analysis using the SCF density.

 **********************************************************************

 Orbital Symmetries:
       Occupied  (AG) (AU) (AG) (AU) (AU) (AU) (AG) (AG) (AG)
       Virtual   (AG) (AU) (AU) (AU) (AG) (AG) (AU) (AG) (AU) (AU)
                 (AG) (AG) (AU) (AU) (AU) (AG) (AG) (AG) (AU) (AG)
                 (AU) (AU) (AU) (AG) (AG) (AG) (AU) (AU) (AG) (AG)
                 (AU) (AG) (AU)
  The electronic state is 1-AG.
 Alpha  occ. eigenvalues --  -10.17237 -10.17215  -0.74741  -0.61196  -0.43008
 Alpha  occ. eigenvalues --   -0.43008  -0.36285  -0.34007  -0.34006
 Alpha virt. eigenvalues --    0.10478   0.15604   0.16368   0.16369   0.19023
 Alpha virt. eigenvalues --    0.19023   0.24255   0.51313   0.54375   0.54376
 Alpha virt. eigenvalues --    0.63680   0.63681   0.66852   0.88298   0.88299
 Alpha virt. eigenvalues --    0.90655   0.91964   0.91965   0.97929   1.06595
 Alpha virt. eigenvalues --    1.43938   1.52623   1.52624   1.93240   1.98088
 Alpha virt. eigenvalues --    1.98091   2.27060   2.27061   2.33314   2.33317
 Alpha virt. eigenvalues --    2.58722   4.14494   4.36591
          Condensed to atoms (all electrons):
              1          2          3          4          5          6
  1  H    0.574865   0.382768  -0.032371  -0.034555  -0.032367  -0.003627
  2  C    0.382768   5.012038   0.382766   0.376152   0.382768  -0.034559
  3  H   -0.032371   0.382766   0.574874  -0.034559  -0.032367  -0.003627
  4  C   -0.034555   0.376152  -0.034559   5.012038  -0.034559   0.382768
  5  H   -0.032367   0.382768  -0.032367  -0.034559   0.574862   0.004641
  6  H   -0.003627  -0.034559  -0.003627   0.382768   0.004641   0.574862
  7  H   -0.003627  -0.034559   0.004641   0.382766  -0.003627  -0.032367
  8  H    0.004641  -0.034555  -0.003627   0.382768  -0.003627  -0.032367
              7          8
  1  H   -0.003627   0.004641
  2  C   -0.034559  -0.034555
  3  H    0.004641  -0.003627
  4  C    0.382766   0.382768
  5  H   -0.003627  -0.003627
  6  H   -0.032367  -0.032367
  7  H    0.574874  -0.032371
  8  H   -0.032371   0.574865
 Total atomic charges:
              1
  1  H    0.144274
  2  C   -0.432820
  3  H    0.144270
  4  C   -0.432820
  5  H    0.144276
  6  H    0.144276
  7  H    0.144270
  8  H    0.144274
 Sum of Mulliken charges=   0.00000
 Atomic charges with hydrogens summed into heavy atoms:
              1
  1  H    0.000000
  2  C    0.000000
  3  H    0.000000
  4  C    0.000000
  5  H    0.000000
  6  H    0.000000
  7  H    0.000000
  8  H    0.000000
 Sum of Mulliken charges=   0.00000
 Electronic spatial extent (au):  <R**2>=   259.4729
 Charge=     0.0000 electrons
 Dipole moment (Debye):
    X=     0.0000    Y=     0.0000    Z=     0.0000  Tot=     0.0000
 Quadrupole moment (Debye-Ang):
   XX=   -14.8291   YY=   -15.0586   ZZ=   -14.7717
   XY=    -0.1988   XZ=     0.0810   YZ=     0.1406
 Octapole moment (Debye-Ang**2):
  XXX=    16.0537  YYY=    28.2362  ZZZ=   -59.6111  XYY=     5.6826
  XXY=     9.4121  XXZ=   -20.0061  XZZ=     5.5485  YZZ=     9.6109
  YYZ=   -20.4321  XYZ=    -0.3688
 Hexadecapole moment (Debye-Ang**3):
 XXXX=   -52.5356 YYYY=  -104.4840 ZZZZ=  -194.1792 XXXY=   -21.2819
 XXXZ=    27.3852 YYYX=   -23.7071 YYYZ=    47.5412 ZZZX=    26.2955
 ZZZY=    45.5465 XXYY=   -27.1034 XXZZ=   -42.5394 YYZZ=   -51.6201
 XXYZ=    15.8470 YYXZ=     9.2119 ZZXY=    -7.8637
 N-N= 4.210944473375D+01 E-N=-2.680248597280D+02  KE= 7.897501437020D+01
 1\1\GINC-GANDALF3\FOpt\RB3LYP\6-31G(d)\C2H6\PEO\25-Nov-1996\0\\# B3LYP
 /6-31G* OPT(READFC,VTIGHT) FREQ=NORAMAN NOSYM GEOM=ALLCHECK GUESS=CHEC
 K\\Basic Ethane minimum\\0,1\H,0.0178900128,0.0309591516,-0.0054972515
 \C,-0.000121029,-0.0001958043,1.0900716871\H,1.0387988787,0.0309506344
 ,1.4383023262\C,-0.7215998616,-1.2498603446,1.6002614682\H,-0.49259841
 42,0.9150969256,1.4383208258\H,-0.2291224782,-2.1651530746,1.252012327
 3\H,-1.7605197676,-1.2810067829,1.2520308242\H,-0.7396109089,-1.281015
 3003,2.6958304067\\Version=SGI-G94RevD.1\State=1-AG\HF=-79.8304169\RMS
 D=1.303e-09\RMSF=9.267e-07\Dipole=0.,0.,0.\PG=CI [X(C2H6)]\\@


 AS FAR AS THE LAWS OF MATHEMATICS REFER TO REALITY,
 THEY ARE NOT CERTAIN; AND AS FAR AS THEY ARE CERTAIN,
 THEY DO NOT REFER TO REALITY.

                                         -- ALBERT EINSTEIN
 Job cpu time:  0 days  0 hours  6 minutes 41.4 seconds.
 File lengths (MBytes):  RWF=    5 Int=    0 D2E=    0 Chk=    2 Scr=    1
 Normal termination of Gaussian 94
 Link1:  Proceeding to next internal job step.
 ------------------------------------------------
 #N Geom=AllCheck Guess=Read RB3LYP/6-31G(d) Freq
 ------------------------------------------------
 1/7=1,10=4,29=7,30=1,38=1/1,3;
 2/12=2,15=1/2;
 3/5=1,6=6,7=1,11=2,25=1,30=1,31=1/1,2,3;
 4/5=1,7=1/1;
 5/5=2,42=-5/2;
 8/6=4,11=11,23=2/1;
 11/6=1,8=1,9=11,15=111,16=11,31=1/1,2,10;
 10/6=1,31=1/2;
 7/8=1,10=1,25=1,30=1/1,2,3,16;
 1/10=4,30=1/3;
 6/7=2,8=2,9=2,10=2,18=1,28=1/1;
 99//99;
 --------------------
 Basic Ethane minimum
 --------------------
 Redundant internal coordinates taken from checkpointfile:
 G92_chk.chk
    Charge = 0 Multiplicity = 1
 H,0,0.0178900128,0.0309591516,-0.0054972515
 C,0,-0.000121029,-0.0001958043,1.0900716871
 H,0,1.0387988787,0.0309506344,1.4383023262
 C,0,-0.7215998616,-1.2498603446,1.6002614682
 H,0,-0.4925984142,0.9150969256,1.4383208258
 H,0,-0.2291224782,-2.1651530746,1.2520123273
 H,0,-1.7605197676,-1.2810067829,1.2520308242
 H,0,-0.7396109089,-1.2810153003,2.6958304067

 GradGradGradGradGradGradGradGradGradGradGradGradGradGradGradGradGradGrad
 Berny optimization.
 Initialization pass.
                         ----------------------------
                         !    Initial Parameters    !
                         ! (Angstroms and Degrees)  !
 ------------------------                            -------------------------
 ! Name  Definition              Value          Derivative Info.             !
 -----------------------------------------------------------------------------
 ! R1    R(2,1)                  1.0962         calculate D2E/DX2 analyticall!
 ! R2    R(3,2)                  1.0962         calculate D2E/DX2 analyticall!
 ! R3    R(4,2)                  1.5305         calculate D2E/DX2 analyticall!
 ! R4    R(5,2)                  1.0962         calculate D2E/DX2 analyticall!
 ! R5    R(6,4)                  1.0962         calculate D2E/DX2 analyticall!
 ! R6    R(7,4)                  1.0962         calculate D2E/DX2 analyticall!
 ! R7    R(8,4)                  1.0962         calculate D2E/DX2 analyticall!
 ! A1    A(1,2,3)              107.5253         calculate D2E/DX2 analyticall!
 ! A2    A(1,2,4)              111.3532         calculate D2E/DX2 analyticall!
 ! A3    A(3,2,4)              111.3509         calculate D2E/DX2 analyticall!
 ! A4    A(1,2,5)              107.5283         calculate D2E/DX2 analyticall!
 ! A5    A(3,2,5)              107.5272         calculate D2E/DX2 analyticall!
 ! A6    A(4,2,5)              111.3513         calculate D2E/DX2 analyticall!
 ! A7    A(2,4,6)              111.3513         calculate D2E/DX2 analyticall!
 ! A8    A(2,4,7)              111.3509         calculate D2E/DX2 analyticall!
 ! A9    A(6,4,7)              107.5272         calculate D2E/DX2 analyticall!
 ! A10   A(2,4,8)              111.3532         calculate D2E/DX2 analyticall!
 ! A11   A(6,4,8)              107.5283         calculate D2E/DX2 analyticall!
 ! A12   A(7,4,8)              107.5253         calculate D2E/DX2 analyticall!
 ! D1    D(6,4,2,1)             59.9976         calculate D2E/DX2 analyticall!
 ! D2    D(6,4,2,3)            -60.0007         calculate D2E/DX2 analyticall!
 ! D3    D(6,4,2,5)            180.             calculate D2E/DX2 analyticall!
 ! D4    D(7,4,2,1)            -60.0017         calculate D2E/DX2 analyticall!
 ! D5    D(7,4,2,3)            180.             calculate D2E/DX2 analyticall!
 ! D6    D(7,4,2,5)             60.0007         calculate D2E/DX2 analyticall!
 ! D7    D(8,4,2,1)           -180.             calculate D2E/DX2 analyticall!
 ! D8    D(8,4,2,3)             60.0017         calculate D2E/DX2 analyticall!
 ! D9    D(8,4,2,5)            -59.9976         calculate D2E/DX2 analyticall!
 -----------------------------------------------------------------------------
 Trust Radius=3.00D-01 FncErr=1.00D-07 GrdErr=1.00D-07
 Number of steps in this run=  38 maximum allowed number of steps= 100.
 GradGradGradGradGradGradGradGradGradGradGradGradGradGradGradGradGradGrad

                   Input orientation:
 ----------------------------------------------------------
 Center     Atomic              Coordinates (Angstroms)
 Number     Number             X           Y           Z
 ----------------------------------------------------------
    1          1           0.017890    0.030959   -0.005497
    2          6          -0.000121   -0.000196    1.090072
    3          1           1.038799    0.030951    1.438302
    4          6          -0.721600   -1.249860    1.600261
    5          1          -0.492598    0.915097    1.438321
    6          1          -0.229122   -2.165153    1.252012
    7          1          -1.760520   -1.281007    1.252031
    8          1          -0.739611   -1.281015    2.695830
 ----------------------------------------------------------
                    Distance matrix (angstroms):
              1          2          3          4          5
  1  H    0.000000
  2  C    1.096160   0.000000
  3  H    1.768279   1.096170   0.000000
  4  C    2.183072   1.530518   2.183051   0.000000
  5  H    1.768307   1.096162   1.768302   2.183050   0.000000
  6  H    2.542686   2.183050   2.542676   1.096162   3.097107
  7  H    2.542710   2.183051   3.097114   1.096170   2.542676
  8  H    3.097137   2.183072   2.542710   1.096160   2.542686
              6          7          8
  6  H    0.000000
  7  H    1.768302   0.000000
  8  H    1.768307   1.768279   0.000000
                           Interatomic angles:
       H1-C2-H3=107.5253       H1-C2-C4=111.3532       H1-H3-C4= 66.1095
       H3-C2-C4=111.3509       H1-C2-H5=107.5283       H1-H3-H5= 60.0006
       H3-C2-H5=107.5272       H1-H5-C4= 66.1092       C4-C2-H5=111.3513
       H3-H5-C4= 66.1085       H1-C2-H6= 95.9725       H1-H3-H6= 69.6524
       H3-C2-H6= 95.9715       H1-C4-H6= 95.9712       C2-C4-H6=111.3513
       H3-C4-H6= 95.9717       H5-H1-H6= 89.9994       H5-C2-H6=139.2339
       H5-H3-H6= 89.9999       H5-C4-H6=139.2339       H1-C2-H7= 95.9739
       H3-H1-H7= 89.9995       H3-C2-H7=139.2338       H1-C4-H7= 95.9723
       C2-C4-H7=111.3509       H3-C4-H7=139.2338       H1-H5-H7= 69.6529
       H5-C2-H7= 95.9717       H3-H5-H7= 90.0001       H5-C4-H7= 95.9715
       H1-H6-H7= 69.6527       C2-H6-H7= 66.1085       H3-H6-H7= 90.0001
       H6-C4-H7=107.5272       H5-H7-H6= 89.9999       H1-C2-H8=139.235 
       H1-H3-H8= 90.0005       H3-C2-H8= 95.9723       H1-C4-H8=139.235 
       C2-C4-H8=111.3532       H3-C4-H8= 95.9739       H1-H5-H8= 90.0006
       H5-C2-H8= 95.9712       H3-H5-H8= 69.6527       H5-C4-H8= 95.9725
       H1-H6-H8= 90.0006       C2-H6-H8= 66.1092       H3-H6-H8= 69.6529
       H6-C4-H8=107.5283       H5-H8-H6= 89.9994       H1-H7-H8= 90.0005
       C2-H7-H8= 66.1095       H3-H8-H7= 89.9995       H7-C4-H8=107.5253
       H5-H7-H8= 69.6524       H6-H7-H8= 60.0006
 Symmetry turned off by external request.
 Stoichiometry    C2H6
 Framework group  CI[X(C2H6)]
 Deg. of freedom    9
 Full point group                 CI      NOp   2
 Rotational constants (GHZ):     80.1848172     19.8934224     19.8933283
 Isotopes: H-1,C-12,H-1,C-12,H-1,H-1,H-1,H-1
 Standard basis: 6-31G(d) (6D, 7F)
 Integral buffers will be    262144 words long.
 Raffenetti 2 integral format.
 Two-electron integral symmetry is turned off.
    42 basis functions       80 primitive gaussians
     9 alpha electrons        9 beta electrons
       nuclear repulsion energy        42.1094447337 Hartrees.
 One-electron integrals computed using PRISM.
 The smallest eigenvalue of the overlap matrix is  8.488D-03
 Initial guess read from the checkpoint file:
 G92_chk.chk
 Initial guess orbital symmetries:
       Occupied  (AG) (AU) (AG) (AU) (AU) (AU) (AG) (AG) (AG)
       Virtual   (AG) (AU) (AU) (AU) (AG) (AG) (AU) (AG) (AU) (AU)
                 (AG) (AG) (AU) (AU) (AU) (AG) (AG) (AG) (AU) (AG)
                 (AU) (AU) (AU) (AG) (AG) (AG) (AU) (AU) (AG) (AG)
                 (AU) (AG) (AU)
 Requested convergence on RMS density matrix=1.00D-08 within  64 cycles.
 Requested convergence on MAX density matrix=1.00D-06.
 Keep R1 and R2 integrals in memory in canonical form, NReq=     1264865.
 SCF Done:  E(RB+HF-LYP) =  -79.8304168919     A.U. after    1 cycles
             Convg  =    0.2814D-09             -V/T =  2.0108
             S**2   =   0.0000
 Range of M.O.s used for correlation:     1    42
 NBasis=    42 NAE=     9 NBE=     9 NFC=     0 NFV=     0
 NROrb=     42 NOA=     9 NOB=     9 NVA=    33 NVB=    33
 G2DrvN: can do   8 atoms at a time, so will make   1 passes doing MaxLOS=2.
 FoFDir used for L=0 through L=2.
          Differentiating once with respect to electric field.
                with respect to dipole field.
          Differentiating once with respect to nuclear coordinates.
          Store integrals in memory, NReq=     1247772.
          There are  27 degrees of freedom in the 1st order CPHF.
  24 vectors were produced by pass  0.
 AX will form  24 AO Fock derivatives at one time.
  24 vectors were produced by pass  1.
  24 vectors were produced by pass  2.
  24 vectors were produced by pass  3.
  23 vectors were produced by pass  4.
   4 vectors were produced by pass  5.
 Inv2:  IOpt= 1 Iter= 1 AM= 1.28D-15 Conv= 1.00D-12.
 Inverted reduced A of dimension 123 with in-core refinement.
 Full mass-weighted force constant matrix:
 Low frequencies ---  -28.2300  -20.8347   -7.6801   -0.0006    0.0002    0.0002
 Low frequencies ---  312.9189  831.7378  832.4266
 Harmonic frequencies (cm**-1), IR intensities (KM/Mole),
 Raman scattering activities (A**4/AMU), Raman depolarization ratios,
 reduced masses (AMU), force constants (mDyne/A) and normal coordinates:
                     1                      2                      3
                    AU                     AU                     AU
 Frequencies --   312.9189               831.7378               832.4266
 Red. masses --     1.0078                 1.0575                 1.0576
 Frc consts  --     0.0581                 0.4310                 0.4318
 IR Inten    --     0.0000                 4.6669                 4.6731
 Raman Activ --     0.0000                 0.0000                 0.0000
 Depolar     --     0.0000                 0.0000                 0.0000
 Atom AN      X      Y      Z        X      Y      Z        X      Y      Z
   1   1     0.35  -0.20   0.00     0.33   0.29  -0.02    -0.02  -0.37   0.01
   2   6     0.00   0.00   0.00    -0.03   0.00  -0.03    -0.03   0.03   0.03
   3   1    -0.12   0.20   0.33    -0.13  -0.39   0.29     0.02  -0.27  -0.08
   4   6     0.00   0.00   0.00    -0.03   0.00  -0.03    -0.03   0.03   0.03
   5   1    -0.24   0.00  -0.33     0.18   0.05   0.14     0.32   0.32  -0.27
   6   1    -0.24   0.00  -0.33     0.18   0.05   0.14     0.32   0.32  -0.27
   7   1    -0.12   0.20   0.33    -0.13  -0.39   0.29     0.02  -0.27  -0.08
   8   1     0.35  -0.20   0.00     0.33   0.29  -0.02    -0.02  -0.37   0.01
                     4                      5                      6
                    AG                     AG                     AG
 Frequencies --  1010.0217              1235.4014              1235.5487
 Red. masses --     3.2493                 1.4648                 1.4648
 Frc consts  --     1.9530                 1.3172                 1.3175
 IR Inten    --     0.0000                 0.0000                 0.0000
 Raman Activ --     0.0000                 0.0000                 0.0000
 Depolar     --     0.0000                 0.0000                 0.0000
 Atom AN      X      Y      Z        X      Y      Z        X      Y      Z
   1   1     0.17   0.30  -0.11    -0.14   0.25  -0.03    -0.30  -0.37   0.11
   2   6     0.15   0.26  -0.11     0.11  -0.08  -0.04     0.06   0.02   0.13
   3   1     0.16   0.30  -0.13     0.07   0.38   0.02     0.19   0.23  -0.28
   4   6    -0.15  -0.26   0.11    -0.11   0.08   0.04    -0.06  -0.02  -0.13
   5   1     0.18   0.29  -0.13    -0.30  -0.37   0.14    -0.08   0.08  -0.24
   6   1    -0.18  -0.29   0.13     0.30   0.37  -0.14     0.08  -0.08   0.24
   7   1    -0.16  -0.30   0.13    -0.07  -0.38  -0.02    -0.19  -0.23   0.28
   8   1    -0.17  -0.30   0.11     0.14  -0.25   0.03     0.30   0.37  -0.11
                     7                      8                      9
                    AU                     AG                     AG
 Frequencies --  1433.0238              1454.2083              1531.7465
 Red. masses --     1.1980                 1.2572                 1.0199
 Frc consts  --     1.4495                 1.5664                 1.4098
 IR Inten    --     0.2625                 0.0000                 0.0000
 Raman Activ --     0.0000                 0.0000                 0.0000
 Depolar     --     0.0000                 0.0000                 0.0000
 Atom AN      X      Y      Z        X      Y      Z        X      Y      Z
   1   1    -0.20  -0.35  -0.03     0.20   0.35   0.04    -0.29   0.35   0.01
   2   6     0.04   0.08  -0.03    -0.05  -0.09   0.04     0.02  -0.01   0.01
   3   1    -0.04  -0.35   0.20     0.03   0.35  -0.20    -0.04  -0.27   0.14
   4   6     0.04   0.08  -0.03     0.05   0.09  -0.04    -0.02   0.01  -0.01
   5   1    -0.29  -0.21   0.20     0.29   0.20  -0.20    -0.14   0.08  -0.42
   6   1    -0.29  -0.21   0.20    -0.29  -0.20   0.20     0.14  -0.08   0.42
   7   1    -0.04  -0.35   0.20    -0.03  -0.35   0.20     0.04   0.27  -0.14
   8   1    -0.20  -0.35  -0.03    -0.20  -0.35  -0.04     0.29  -0.35  -0.01
                    10                     11                     12
                    AG                     AU                     AU
 Frequencies --  1532.1621              1537.4225              1537.8152
 Red. masses --     1.0198                 1.0620                 1.0619
 Frc consts  --     1.4105                 1.4790                 1.4796
 IR Inten    --     0.0000                 7.4765                 7.4730
 Raman Activ --     0.0000                 0.0000                 0.0000
 Depolar     --     0.0000                 0.0000                 0.0000
 Atom AN      X      Y      Z        X      Y      Z        X      Y      Z
   1   1     0.35   0.10   0.01     0.27  -0.34  -0.03     0.38   0.01   0.03
   2   6    -0.01   0.01   0.02    -0.04   0.01  -0.03    -0.02   0.03   0.04
   3   1     0.14  -0.24  -0.40    -0.02   0.25  -0.07     0.15  -0.22  -0.44
   4   6     0.01  -0.01  -0.02    -0.04   0.01  -0.03    -0.02   0.03   0.04
   5   1    -0.32  -0.14  -0.06     0.21  -0.04   0.44    -0.28  -0.10  -0.03
   6   1     0.32   0.14   0.06     0.21  -0.04   0.44    -0.28  -0.10  -0.03
   7   1    -0.14   0.24   0.40    -0.02   0.25  -0.07     0.15  -0.22  -0.44
   8   1    -0.35  -0.10  -0.01     0.27  -0.34  -0.03     0.38   0.01   0.03
                    13                     14                     15
                    AG                     AU                     AG
 Frequencies --  3047.0774              3047.9938              3098.3069
 Red. masses --     1.0367                 1.0343                 1.1020
 Frc consts  --     5.6711                 5.6615                 6.2328
 IR Inten    --     0.0000                59.0363                 0.0000
 Raman Activ --     0.0000                 0.0000                 0.0000
 Depolar     --     0.0000                 0.0000                 0.0000
 Atom AN      X      Y      Z        X      Y      Z        X      Y      Z
   1   1     0.00   0.00   0.41     0.00   0.00  -0.41    -0.02   0.00   0.34
   2   6     0.02   0.03  -0.01    -0.02  -0.03   0.01    -0.05   0.02  -0.04
   3   1    -0.39   0.00  -0.13     0.39   0.00   0.14     0.54   0.01   0.18
   4   6    -0.02  -0.03   0.01    -0.02  -0.03   0.01     0.05  -0.02   0.04
   5   1     0.19  -0.33  -0.13    -0.19   0.33   0.13     0.10  -0.19  -0.09
   6   1    -0.19   0.33   0.13    -0.19   0.33   0.13    -0.10   0.19   0.09
   7   1     0.39   0.00   0.13     0.39   0.00   0.14    -0.54  -0.01  -0.18
   8   1     0.00   0.00  -0.41     0.00   0.00  -0.41     0.02   0.00  -0.34
                    16                     17                     18
                    AG                     AU                     AU
 Frequencies --  3098.5764              3122.6553              3122.9498
 Red. masses --     1.1020                 1.1030                 1.1030
 Frc consts  --     6.2341                 6.3370                 6.3383
 IR Inten    --     0.0000                73.8323                73.8101
 Raman Activ --     0.0000                 0.0000                 0.0000
 Depolar     --     0.0000                 0.0000                 0.0000
 Atom AN      X      Y      Z        X      Y      Z        X      Y      Z
   1   1     0.00  -0.01   0.46    -0.01  -0.01   0.39     0.00   0.02  -0.42
   2   6     0.02  -0.03  -0.05    -0.05   0.01  -0.04    -0.03   0.04   0.05
   3   1    -0.05  -0.01  -0.03     0.53   0.01   0.18     0.12   0.01   0.05
   4   6    -0.02   0.03   0.05    -0.05   0.01  -0.04    -0.03   0.04   0.05
   5   1    -0.24   0.44   0.16     0.07  -0.14  -0.07     0.25  -0.46  -0.17
   6   1     0.24  -0.44  -0.16     0.07  -0.14  -0.07     0.25  -0.46  -0.17
   7   1     0.05   0.01   0.03     0.53   0.01   0.18     0.12   0.01   0.05
   8   1     0.00   0.01  -0.46    -0.01  -0.01   0.39     0.00   0.02  -0.42

 -------------------
 - Thermochemistry -
 -------------------
 Temperature   298.150 Kelvin.  Pressure   1.00000 Atm.
 Atom  1 has atomic number  1 and mass   1.00783
 Atom  2 has atomic number  6 and mass  12.00000
 Atom  3 has atomic number  1 and mass   1.00783
 Atom  4 has atomic number  6 and mass  12.00000
 Atom  5 has atomic number  1 and mass   1.00783
 Atom  6 has atomic number  1 and mass   1.00783
 Atom  7 has atomic number  1 and mass   1.00783
 Atom  8 has atomic number  1 and mass   1.00783
 Molecular mass:    30.04695 amu.
 Principal axes and moments of inertia in atomic units:
                           1         2         3
     EIGENVALUES --    22.50727  90.72050  90.72093
           X            0.47140   0.61874   0.62845
           Y            0.81649  -0.57553  -0.04581
           Z           -0.33334  -0.53472   0.77650
 THIS MOLECULE IS AN ASYMMETRIC TOP.
 ROTATIONAL SYMMETRY NUMBER  1.
 ROTATIONAL TEMPERATURES (KELVIN)      3.84824     0.95473     0.95472
 ROTATIONAL CONSTANTS (GHZ)           80.18482    19.89342    19.89333
 Zero-point vibrational energy     197515.4 (Joules/Mol)
                                   47.20732 (Kcal/Mol)
 WARNING-- EXPLICIT CONSIDERATION OF   1 DEGREES OF FREEDOM AS
           VIBRATIONS MAY CAUSE SIGNIFICANT ERROR
 VIBRATIONAL TEMPERATURES:    450.22  1196.68  1197.67  1453.19  1777.46
          (KELVIN)           1777.67  2061.79  2092.27  2203.83  2204.43
                             2212.00  2212.56  4384.04  4385.36  4457.75
                             4458.13  4492.78  4493.20
 
 Zero-point correction=                           0.075230 (Hartree/Particle)
 Thermal correction to Energy=                    0.078700
 Thermal correction to Enthalpy=                  0.079644
 Thermal correction to Gibbs Free Energy=         0.052118
 Sum of electronic and zero-point Energies=            -79.755187
 Sum of electronic and thermal Energies=               -79.751717
 Sum of electronic and thermal Enthalpies=             -79.750773
 Sum of electronic and thermal Free Energies=          -79.778299
 
                     E (Thermal)             CV                S
                      KCAL/MOL        CAL/MOL-KELVIN    CAL/MOL-KELVIN
 TOTAL                   49.385              9.990             57.933
 ELECTRONIC               0.000              0.000              0.000
 TRANSLATIONAL            0.889              2.981             36.134
 ROTATIONAL               0.889              2.981             19.855
 VIBRATIONAL             47.607              4.028              1.944
 VIBRATION  1             0.701              1.649              1.347
                       Q            LOG10(Q)             LN(Q)
 TOTAL BOT       0.106548D-23        -23.972456        -55.501792
 TOTAL V=0       0.427114D+11         10.630544         24.174561
 VIB (BOT)       0.337804D-34        -34.471335        -79.373181
 VIB (BOT)  1    0.603263D+00         -0.219493         -0.505401
 VIB (V=0)       0.135415D+01          0.131665          0.303171
 VIB (V=0)  1    0.128353D+01          0.108408          0.249618
 ELECTRONIC      0.100000D+01          0.000000          0.000000
 TRANSLATIONAL   0.647383D+07          6.811161         15.683278
 ROTATIONAL      0.487211D+04          3.687717          8.491283
 -------------------------------------------------------------------
 Center     Atomic                   Forces (Hartrees/Bohr)
 Number     Number              X              Y              Z
 -------------------------------------------------------------------
    1          1           0.000001336   -0.000001606   -0.000000446
    2          6          -0.000000033   -0.000000592   -0.000000279
    3          1          -0.000000202    0.000000425    0.000000592
    4          6           0.000000032    0.000000592    0.000000279
    5          1          -0.000000329    0.000000138   -0.000002147
    6          1           0.000000329   -0.000000138    0.000002148
    7          1           0.000000202   -0.000000425   -0.000000592
    8          1          -0.000001336    0.000001606    0.000000446
 -------------------------------------------------------------------
 Cartesian Forces:  Max     0.000002148 RMS     0.000000927
 Internal  Forces:  Max     0.000000212 RMS     0.000000060

 GradGradGradGradGradGradGradGradGradGradGradGradGradGradGradGradGradGrad
 Berny optimization.
 Search for a local minimum.
 Step number   1 out of a maximum of  38
 All quantities printed in internal units (Hartrees-Bohrs-Radians)
 Second derivative matrix not updated -- analytic derivatives used.
     Eigenvalues ---    0.00232   0.04649   0.04651   0.04868   0.04871
     Eigenvalues ---    0.12426   0.12580   0.12608   0.12863   0.18087
     Eigenvalues ---    0.18092   0.30695   0.33488   0.33494   0.33750
     Eigenvalues ---    0.33756   0.34585   0.348091000.000001000.00000
     Eigenvalues --- 1000.000001000.000001000.000001000.000001000.00000
     Eigenvalues --- 1000.000001000.000001000.00000
 Angle between quadratic step and forces=  90.00 degrees.
 Linear search not attempted -- first point.
 Iteration  1 RMS(Cart)=  0.00000036 RMS(Int)=  0.00000001
 TrRot=  0.000000  0.000000  0.000000  0.000000  0.000000  0.000000
 Variable       Old X    -DE/DX   Delta X   Delta X   Delta X     New X
                                 (Linear)    (Quad)   (Total)
    R1        2.07144   0.00000   0.00000   0.00000   0.00000   2.07144
    R2        2.07146   0.00000   0.00000   0.00000   0.00000   2.07146
    R3        2.89226   0.00000   0.00000   0.00000   0.00000   2.89226
    R4        2.07145   0.00000   0.00000   0.00000   0.00000   2.07145
    R5        2.07145   0.00000   0.00000   0.00000   0.00000   2.07145
    R6        2.07146   0.00000   0.00000   0.00000   0.00000   2.07146
    R7        2.07144   0.00000   0.00000   0.00000   0.00000   2.07144
    A1        1.87667   0.00000   0.00000   0.00000   0.00000   1.87667
    A2        1.94348   0.00000   0.00000   0.00000   0.00000   1.94348
    A3        1.94344   0.00000   0.00000   0.00000   0.00000   1.94344
    A4        1.87672   0.00000   0.00000   0.00000   0.00000   1.87672
    A5        1.87670   0.00000   0.00000   0.00000   0.00000   1.87670
    A6        1.94345   0.00000   0.00000   0.00000   0.00000   1.94345
    A7        1.94345   0.00000   0.00000   0.00000   0.00000   1.94345
    A8        1.94344   0.00000   0.00000   0.00000   0.00000   1.94344
    A9        1.87670   0.00000   0.00000   0.00000   0.00000   1.87670
   A10        1.94348   0.00000   0.00000   0.00000   0.00000   1.94348
   A11        1.87672   0.00000   0.00000   0.00000   0.00000   1.87672
   A12        1.87667   0.00000   0.00000   0.00000   0.00000   1.87667
    D1        1.04716   0.00000   0.00000   0.00000   0.00000   1.04716
    D2       -1.04721   0.00000   0.00000   0.00000   0.00000  -1.04721
    D3        3.14159   0.00000   0.00000   0.00000   0.00000   3.14159
    D4       -1.04723   0.00000   0.00000   0.00000   0.00000  -1.04723
    D5        3.14159   0.00000   0.00000   0.00000   0.00000   3.14159
    D6        1.04721   0.00000   0.00000   0.00000   0.00000   1.04721
    D7       -3.14159   0.00000   0.00000   0.00000   0.00000  -3.14159
    D8        1.04723   0.00000   0.00000   0.00000   0.00000   1.04723
    D9       -1.04716   0.00000   0.00000   0.00000   0.00000  -1.04716
         Item               Value     Threshold  Converged?
 Maximum Force            0.000000     0.000002     YES
 RMS     Force            0.000000     0.000001     YES
 Maximum Displacement     0.000001     0.000006     YES
 RMS     Displacement     0.000000     0.000004     YES
 Predicted change in Energy=-3.673086D-13
 Optimization completed.
    -- Stationary point found.
                         ----------------------------
                         !   Optimized Parameters   !
                         ! (Angstroms and Degrees)  !
 ------------------------                            -------------------------
 ! Name  Definition              Value          Derivative Info.             !
 -----------------------------------------------------------------------------
 ! R1    R(2,1)                  1.0962         -DE/DX =    0.               !
 ! R2    R(3,2)                  1.0962         -DE/DX =    0.               !
 ! R3    R(4,2)                  1.5305         -DE/DX =    0.               !
 ! R4    R(5,2)                  1.0962         -DE/DX =    0.               !
 ! R5    R(6,4)                  1.0962         -DE/DX =    0.               !
 ! R6    R(7,4)                  1.0962         -DE/DX =    0.               !
 ! R7    R(8,4)                  1.0962         -DE/DX =    0.               !
 ! A1    A(1,2,3)              107.5253         -DE/DX =    0.               !
 ! A2    A(1,2,4)              111.3532         -DE/DX =    0.               !
 ! A3    A(3,2,4)              111.3509         -DE/DX =    0.               !
 ! A4    A(1,2,5)              107.5283         -DE/DX =    0.               !
 ! A5    A(3,2,5)              107.5272         -DE/DX =    0.               !
 ! A6    A(4,2,5)              111.3513         -DE/DX =    0.               !
 ! A7    A(2,4,6)              111.3513         -DE/DX =    0.               !
 ! A8    A(2,4,7)              111.3509         -DE/DX =    0.               !
 ! A9    A(6,4,7)              107.5272         -DE/DX =    0.               !
 ! A10   A(2,4,8)              111.3532         -DE/DX =    0.               !
 ! A11   A(6,4,8)              107.5283         -DE/DX =    0.               !
 ! A12   A(7,4,8)              107.5253         -DE/DX =    0.               !
 ! D1    D(6,4,2,1)             59.9976         -DE/DX =    0.               !
 ! D2    D(6,4,2,3)            -60.0007         -DE/DX =    0.               !
 ! D3    D(6,4,2,5)            180.             -DE/DX =    0.               !
 ! D4    D(7,4,2,1)            -60.0017         -DE/DX =    0.               !
 ! D5    D(7,4,2,3)            180.             -DE/DX =    0.               !
 ! D6    D(7,4,2,5)             60.0007         -DE/DX =    0.               !
 ! D7    D(8,4,2,1)           -180.             -DE/DX =    0.               !
 ! D8    D(8,4,2,3)             60.0017         -DE/DX =    0.               !
 ! D9    D(8,4,2,5)            -59.9976         -DE/DX =    0.               !
 -----------------------------------------------------------------------------
 GradGradGradGradGradGradGradGradGradGradGradGradGradGradGradGradGradGrad


 **********************************************************************

            Population analysis using the SCF density.

 **********************************************************************

 Orbital Symmetries:
       Occupied  (AG) (AU) (AG) (AU) (AU) (AU) (AG) (AG) (AG)
       Virtual   (AG) (AU) (AU) (AU) (AG) (AG) (AU) (AG) (AU) (AU)
                 (AG) (AG) (AU) (AU) (AU) (AG) (AG) (AG) (AU) (AG)
                 (AU) (AU) (AU) (AG) (AG) (AG) (AU) (AU) (AG) (AG)
                 (AU) (AG) (AU)
  The electronic state is 1-AG.
 Alpha  occ. eigenvalues --  -10.17237 -10.17215  -0.74741  -0.61196  -0.43008
 Alpha  occ. eigenvalues --   -0.43008  -0.36285  -0.34007  -0.34006
 Alpha virt. eigenvalues --    0.10478   0.15604   0.16368   0.16369   0.19023
 Alpha virt. eigenvalues --    0.19023   0.24255   0.51313   0.54375   0.54376
 Alpha virt. eigenvalues --    0.63680   0.63681   0.66852   0.88298   0.88299
 Alpha virt. eigenvalues --    0.90655   0.91964   0.91965   0.97929   1.06595
 Alpha virt. eigenvalues --    1.43938   1.52623   1.52624   1.93240   1.98088
 Alpha virt. eigenvalues --    1.98091   2.27060   2.27061   2.33314   2.33317
 Alpha virt. eigenvalues --    2.58722   4.14494   4.36591
          Condensed to atoms (all electrons):
              1          2          3          4          5          6
  1  H    0.574865   0.382768  -0.032371  -0.034555  -0.032367  -0.003627
  2  C    0.382768   5.012038   0.382766   0.376152   0.382768  -0.034559
  3  H   -0.032371   0.382766   0.574874  -0.034559  -0.032367  -0.003627
  4  C   -0.034555   0.376152  -0.034559   5.012038  -0.034559   0.382768
  5  H   -0.032367   0.382768  -0.032367  -0.034559   0.574862   0.004641
  6  H   -0.003627  -0.034559  -0.003627   0.382768   0.004641   0.574862
  7  H   -0.003627  -0.034559   0.004641   0.382766  -0.003627  -0.032367
  8  H    0.004641  -0.034555  -0.003627   0.382768  -0.003627  -0.032367
              7          8
  1  H   -0.003627   0.004641
  2  C   -0.034559  -0.034555
  3  H    0.004641  -0.003627
  4  C    0.382766   0.382768
  5  H   -0.003627  -0.003627
  6  H   -0.032367  -0.032367
  7  H    0.574874  -0.032371
  8  H   -0.032371   0.574865
 Total atomic charges:
              1
  1  H    0.144274
  2  C   -0.432820
  3  H    0.144270
  4  C   -0.432820
  5  H    0.144276
  6  H    0.144276
  7  H    0.144270
  8  H    0.144274
 Sum of Mulliken charges=   0.00000
 Atomic charges with hydrogens summed into heavy atoms:
              1
  1  H    0.000000
  2  C    0.000000
  3  H    0.000000
  4  C    0.000000
  5  H    0.000000
  6  H    0.000000
  7  H    0.000000
  8  H    0.000000
 Sum of Mulliken charges=   0.00000
 Electronic spatial extent (au):  <R**2>=   259.4729
 Charge=     0.0000 electrons
 Dipole moment (Debye):
    X=     0.0000    Y=     0.0000    Z=     0.0000  Tot=     0.0000
 Quadrupole moment (Debye-Ang):
   XX=   -14.8291   YY=   -15.0586   ZZ=   -14.7717
   XY=    -0.1988   XZ=     0.0810   YZ=     0.1406
 Octapole moment (Debye-Ang**2):
  XXX=    16.0537  YYY=    28.2362  ZZZ=   -59.6111  XYY=     5.6826
  XXY=     9.4121  XXZ=   -20.0061  XZZ=     5.5485  YZZ=     9.6109
  YYZ=   -20.4321  XYZ=    -0.3688
 Hexadecapole moment (Debye-Ang**3):
 XXXX=   -52.5356 YYYY=  -104.4840 ZZZZ=  -194.1792 XXXY=   -21.2819
 XXXZ=    27.3852 YYYX=   -23.7071 YYYZ=    47.5412 ZZZX=    26.2955
 ZZZY=    45.5465 XXYY=   -27.1034 XXZZ=   -42.5394 YYZZ=   -51.6201
 XXYZ=    15.8470 YYXZ=     9.2119 ZZXY=    -7.8637
 N-N= 4.210944473375D+01 E-N=-2.680248595652D+02  KE= 7.897501430833D+01
  Exact polarizability:  22.752   0.585  23.427  -0.239  -0.414  22.583
 Approx polarizability:  28.473  -0.478  27.920   0.195   0.338  28.610
 1\1\GINC-GANDALF3\Freq\RB3LYP\6-31G(d)\C2H6\PEO\25-Nov-1996\0\\#N GEOM
 =ALLCHECK GUESS=READ RB3LYP/6-31G(D) FREQ\\Basic Ethane minimum\\0,1\H
 ,0.0178900128,0.0309591516,-0.0054972515\C,-0.000121029,-0.0001958043,
 1.0900716871\H,1.0387988787,0.0309506344,1.4383023262\C,-0.7215998616,
 -1.2498603446,1.6002614682\H,-0.4925984142,0.9150969256,1.4383208258\H
 ,-0.2291224782,-2.1651530746,1.2520123273\H,-1.7605197676,-1.281006782
 9,1.2520308242\H,-0.7396109089,-1.2810153003,2.6958304067\\Version=SGI
 -G94RevD.1\State=1-AG\HF=-79.8304169\RMSD=2.814e-10\RMSF=9.267e-07\Dip
 ole=0.,0.,0.\DipoleDeriv=0.0499815,-0.0221326,0.0080687,-0.0221284,0.0
 244048,0.0139526,0.0209904,0.036372,-0.181008,0.1103871,-0.0130105,0.0
 053086,-0.0130145,0.0953271,0.009212,0.0053315,0.0092149,0.1141157,-0.
 1645063,-0.0416683,-0.0548227,-0.0205275,0.0244489,0.0162068,-0.067767
 ,0.0087349,0.0334525,0.1103871,-0.0130105,0.0053086,-0.0130145,0.09532
 71,0.009212,0.0053315,0.0092149,0.1141157,0.0041377,0.0768113,0.041445
 4,0.0556704,-0.1441808,-0.0393714,0.0414451,-0.0543218,0.0334397,0.004
 1377,0.0768113,0.0414454,0.0556704,-0.1441808,-0.0393714,0.0414451,-0.
 0543218,0.0334397,-0.1645063,-0.0416683,-0.0548227,-0.0205275,0.024448
 9,0.0162068,-0.067767,0.0087349,0.0334525,0.0499815,-0.0221326,0.00806
 87,-0.0221284,0.0244048,0.0139526,0.0209904,0.036372,-0.181008\Polar=2
 2.7519876,0.5853587,23.4273666,-0.2391854,-0.4139575,22.582673\PG=CI [
 X(C2H6)]\NImag=0\\0.04969903,0.00216464,0.05213386,-0.00334200,-0.0057
 6133,0.33827650,-0.05038172,0.00082717,0.00212620,0.55424778,0.0008320
 2,-0.04939413,0.00363892,-0.03572198,0.51318073,0.00181335,0.00309212,
 -0.31172991,0.01443608,0.02520797,0.56464453,0.00183478,0.00037412,-0.
 00004445,-0.28385083,-0.00312220,-0.08041924,0.30825955,0.00009170,-0.
 00099436,-0.00036088,-0.00257331,-0.04937667,-0.00181437,0.00611860,0.
 05212768,-0.03276226,0.00003262,-0.00976306,-0.08075206,-0.00200604,-0
 .07819087,0.08808091,-0.00010512,0.07964134,-0.00054560,-0.00001515,0.
 00026337,-0.10852444,-0.04652679,0.01907505,-0.01396819,-0.02838016,0.
 01262225,0.55424777,-0.00002718,-0.00055635,0.00045873,-0.04652679,-0.
 16241146,0.03294588,-0.00043853,-0.00056237,-0.00012826,-0.03572198,0.
 51318073,0.01735621,0.03006289,-0.00939762,0.01907505,0.03294588,-0.09
 513226,-0.00448001,-0.01000689,0.00401103,0.01443608,0.02520797,0.5646
 4453,-0.00050775,-0.00125500,-0.00029222,-0.10553947,0.10034821,0.0386
 4718,-0.01379754,0.02630966,0.01170737,0.00856249,-0.01534356,-0.00642
 862,0.11089727,-0.00097718,0.00132937,-0.00021537,0.09981592,-0.227838
 07,-0.07060007,-0.00011707,0.00133172,0.00098380,0.01257429,-0.0230416
 9,-0.00888753,-0.10782303,0.24962236,0.01640865,-0.02834736,-0.0097573
 1,0.03865025,-0.07097127,-0.07822370,-0.00499877,0.01062857,0.00354830
 ,-0.00642114,0.01085407,0.00401880,-0.04414857,0.07626085,0.07966981,0
 .00046564,0.00089470,-0.00029478,0.00856249,-0.01534356,-0.00642862,0.
 00086439,0.00053715,-0.00057636,-0.10553947,0.10034821,0.03864718,-0.0
 0094503,-0.00366813,0.00138600,0.11089727,0.00041218,0.00105401,0.0003
 7564,0.01257429,-0.02304169,-0.00888753,-0.00021699,0.00104648,-0.0005
 1116,0.09981592,-0.22783807,-0.07060007,-0.00366813,-0.00350420,0.0025
 9384,-0.10782303,0.24962236,-0.00072187,-0.00025781,0.00055287,-0.0064
 2114,0.01085407,0.00401880,-0.00015456,-0.00076088,0.00015648,0.038650
 25,-0.07097127,-0.07822370,0.00138600,0.00259384,0.00003476,-0.0441485
 7,0.07626085,0.07966981,0.00034620,0.00034439,0.00046311,-0.01396819,-
 0.00043853,-0.00448001,0.00031165,-0.00294232,0.00155301,-0.28385083,-
 0.00312220,-0.08041924,0.00086439,-0.00021699,-0.00015456,-0.01379754,
 -0.00011707,-0.00499877,0.30825955,0.00083869,0.00118943,-0.00007701,-
 0.02838016,-0.00056237,-0.01000689,-0.00294232,-0.00476192,0.00249659,
 -0.00257331,-0.04937667,-0.00181437,0.00053715,0.00104648,-0.00076088,
 0.02630966,0.00133172,0.01062857,0.00611860,0.05212768,0.00012715,-0.0
 0076244,0.00056112,0.01262225,-0.00012826,0.00401103,0.00155301,0.0024
 9659,0.00003566,-0.08075206,-0.00200604,-0.07819087,-0.00057636,-0.000
 51116,0.00015648,0.01170737,0.00098380,0.00354830,0.08808091,-0.000105
 12,0.07964134,-0.00091058,-0.00333488,0.00112076,-0.00054560,-0.000027
 18,0.01735621,0.00034620,0.00083869,0.00012715,-0.05038172,0.00083202,
 0.00181336,0.00046564,0.00041218,-0.00072187,-0.00050775,-0.00097718,0
 .01640865,0.00183478,0.00009170,-0.03276226,0.04969903,-0.00333488,-0.
 00476184,0.00194131,-0.00001515,-0.00055635,0.03006289,0.00034439,0.00
 118943,-0.00076244,0.00082717,-0.04939413,0.00309212,0.00089470,0.0010
 5401,-0.00025781,-0.00125500,0.00132937,-0.02834736,0.00037412,-0.0009
 9436,0.00003262,0.00216464,0.05213386,0.00112076,0.00194131,0.00125743
 ,0.00026337,0.00045873,-0.00939762,0.00046311,-0.00007701,0.00056112,0
 .00212620,0.00363892,-0.31172991,-0.00029478,0.00037564,0.00055287,-0.
 00029222,-0.00021537,-0.00975731,-0.00004445,-0.00036088,-0.00976306,-
 0.00334200,-0.00576133,0.33827650\\-0.00000134,0.00000161,0.00000045,0
 .00000003,0.00000059,0.00000028,0.00000020,-0.00000042,-0.00000059,-0.
 00000003,-0.00000059,-0.00000028,0.00000033,-0.00000014,0.00000215,-0.
 00000033,0.00000014,-0.00000215,-0.00000020,0.00000042,0.00000059,0.00
 000134,-0.00000161,-0.00000045\\\@


 WE THE UNWILLING
 LED BY THE UNQUALIFIED
 HAVE BEEN DOING THE UNBELIEVABLE SO LONG WITH SO LITTLE
 THAT WE NOW ATTEMPT THE IMPOSSIBLE WITH NOTHING.

                                    -- ANONYMOUS
 Job cpu time:  0 days  0 hours 31 minutes  0.1 seconds.
 File lengths (MBytes):  RWF=    5 Int=    0 D2E=    0 Chk=    2 Scr=    1
 Normal termination of Gaussian 94
