Basic Ethane rotation TS                                                
Freq      RB3LYP                        6-31G(d)                      
Number of atoms                            I                8
Charge                                     I                0
Multiplicity                               I                1
Number of electrons                        I               18
Number of alpha electrons                  I                9
Number of beta electrons                   I                9
Number of basis functions                  I               42
Number of contracted shells                I               20
Highest angular momentum                   I                2
Largest degree of contraction              I                6
Number of primitive shells                 I               46
Viriral Ratio                              R      2.010836917589393E+00
SCF Energy                                 R     -7.982592645289063E+01
Total Energy                               R     -7.982592645289063E+01
RMS Force                                  R      1.930089779407714E-07
RMS Density                                R      3.014518109178169E-10
Atomic numbers                             I   N=           8
           1           6           1           6           1           1
           1           1
Nuclear charges                            R   N=           8
  1.00000000E+00  6.00000000E+00  1.00000000E+00  6.00000000E+00  1.00000000E+00
  1.00000000E+00  1.00000000E+00  1.00000000E+00
Current cartesian coordinates              R   N=          24
 -3.30916885E-16  1.92123911E+00  2.22839892E+00 -1.92225567E-16  8.77763640E-17
  1.45960498E+00  1.66384188E+00 -9.60619556E-01  2.22839892E+00  8.01442690E-16
  1.55489562E-16 -1.45960498E+00 -1.66384188E+00 -9.60619556E-01  2.22839892E+00
  1.66384188E+00 -9.60619556E-01 -2.22839892E+00  1.34749009E-15  1.92123911E+00
 -2.22839892E+00 -1.66384188E+00 -9.60619556E-01 -2.22839892E+00
Shell types                                I   N=          20
           0           0           0          -1          -1           2
           0           0           0          -1          -1           2
           0           0           0           0           0           0
           0           0
Number of primitives per shell             I   N=          20
           3           1           6           3           1           1
           3           1           6           3           1           1
           3           1           3           1           3           1
           3           1
Shell to atom map                          I   N=          20
           1           1           2           2           2           2
           3           3           4           4           4           4
           5           5           6           6           7           7
           8           8
Primitive exponents                        R   N=          46
  1.87311370E+01  2.82539436E+00  6.40121692E-01  1.61277759E-01  3.04752488E+03
  4.57369518E+02  1.03948685E+02  2.92101553E+01  9.28666296E+00  3.16392696E+00
  7.86827235E+00  1.88128854E+00  5.44249258E-01  1.68714478E-01  8.00000000E-01
  1.87311370E+01  2.82539436E+00  6.40121692E-01  1.61277759E-01  3.04752488E+03
  4.57369518E+02  1.03948685E+02  2.92101553E+01  9.28666296E+00  3.16392696E+00
  7.86827235E+00  1.88128854E+00  5.44249258E-01  1.68714478E-01  8.00000000E-01
  1.87311370E+01  2.82539436E+00  6.40121692E-01  1.61277759E-01  1.87311370E+01
  2.82539436E+00  6.40121692E-01  1.61277759E-01  1.87311370E+01  2.82539436E+00
  6.40121692E-01  1.61277759E-01  1.87311370E+01  2.82539436E+00  6.40121692E-01
  1.61277759E-01
Contraction coefficients                   R   N=          46
  3.34946043E-02  2.34726953E-01  8.13757326E-01  1.00000000E+00  1.83473713E-03
  1.40373228E-02  6.88426223E-02  2.32184443E-01  4.67941348E-01  3.62311985E-01
 -1.19332420E-01 -1.60854152E-01  1.14345644E+00  1.00000000E+00  1.00000000E+00
  3.34946043E-02  2.34726953E-01  8.13757326E-01  1.00000000E+00  1.83473713E-03
  1.40373228E-02  6.88426223E-02  2.32184443E-01  4.67941348E-01  3.62311985E-01
 -1.19332420E-01 -1.60854152E-01  1.14345644E+00  1.00000000E+00  1.00000000E+00
  3.34946043E-02  2.34726953E-01  8.13757326E-01  1.00000000E+00  3.34946043E-02
  2.34726953E-01  8.13757326E-01  1.00000000E+00  3.34946043E-02  2.34726953E-01
  8.13757326E-01  1.00000000E+00  3.34946043E-02  2.34726953E-01  8.13757326E-01
  1.00000000E+00
P(S=P) Contraction coefficients            R   N=          46
  0.00000000E+00  0.00000000E+00  0.00000000E+00  0.00000000E+00  0.00000000E+00
  0.00000000E+00  0.00000000E+00  0.00000000E+00  0.00000000E+00  0.00000000E+00
  6.89990666E-02  3.16423961E-01  7.44308291E-01  1.00000000E+00  0.00000000E+00
  0.00000000E+00  0.00000000E+00  0.00000000E+00  0.00000000E+00  0.00000000E+00
  0.00000000E+00  0.00000000E+00  0.00000000E+00  0.00000000E+00  0.00000000E+00
  6.89990666E-02  3.16423961E-01  7.44308291E-01  1.00000000E+00  0.00000000E+00
  0.00000000E+00  0.00000000E+00  0.00000000E+00  0.00000000E+00  0.00000000E+00
  0.00000000E+00  0.00000000E+00  0.00000000E+00  0.00000000E+00  0.00000000E+00
  0.00000000E+00  0.00000000E+00  0.00000000E+00  0.00000000E+00  0.00000000E+00
  0.00000000E+00
Coordinates of each shell                  R   N=          60
 -3.30916885E-16  1.92123911E+00  2.22839892E+00 -3.30916885E-16  1.92123911E+00
  2.22839892E+00 -1.92225567E-16  8.77763640E-17  1.45960498E+00 -1.92225567E-16
  8.77763640E-17  1.45960498E+00 -1.92225567E-16  8.77763640E-17  1.45960498E+00
 -1.92225567E-16  8.77763640E-17  1.45960498E+00  1.66384188E+00 -9.60619556E-01
  2.22839892E+00  1.66384188E+00 -9.60619556E-01  2.22839892E+00  8.01442690E-16
  1.55489562E-16 -1.45960498E+00  8.01442690E-16  1.55489562E-16 -1.45960498E+00
  8.01442690E-16  1.55489562E-16 -1.45960498E+00  8.01442690E-16  1.55489562E-16
 -1.45960498E+00 -1.66384188E+00 -9.60619556E-01  2.22839892E+00 -1.66384188E+00
 -9.60619556E-01  2.22839892E+00  1.66384188E+00 -9.60619556E-01 -2.22839892E+00
  1.66384188E+00 -9.60619556E-01 -2.22839892E+00  1.34749009E-15  1.92123911E+00
 -2.22839892E+00  1.34749009E-15  1.92123911E+00 -2.22839892E+00 -1.66384188E+00
 -9.60619556E-01 -2.22839892E+00 -1.66384188E+00 -9.60619556E-01 -2.22839892E+00
Alpha Orbital Energies                     R   N=          42
 -1.01718654E+01 -1.01716757E+01 -7.44096825E-01 -6.13599951E-01 -4.28598705E-01
 -4.28598705E-01 -3.62425908E-01 -3.38123462E-01 -3.38123462E-01  1.05411706E-01
  1.35293101E-01  1.35293101E-01  1.54453823E-01  2.36915682E-01  2.36915682E-01
  2.42009078E-01  5.18527662E-01  5.34876389E-01  5.34876389E-01  6.65805098E-01
  6.89914157E-01  6.89914157E-01  8.58452480E-01  8.58452480E-01  9.15209751E-01
  9.15209751E-01  9.16904583E-01  9.77741467E-01  1.03889913E+00  1.46790116E+00
  1.49014124E+00  1.49014124E+00  1.91571827E+00  2.05994834E+00  2.05994834E+00
  2.12851280E+00  2.12851280E+00  2.41937353E+00  2.41937353E+00  2.57871145E+00
  4.13144407E+00  4.38546867E+00
Alpha MO coefficients                      R   N=        1764
 -1.70469907E-04  1.86812288E-03  7.02006966E-01  3.49869127E-02  0.00000000E+00
 -5.07406617E-17  1.17364190E-04 -8.55911042E-03  0.00000000E+00  1.45716772E-16
 -8.83388962E-04 -6.52873693E-03 -6.52873693E-03 -6.85636190E-03  0.00000000E+00
  0.00000000E+00  8.47032947E-19 -1.70469907E-04  1.86812288E-03  7.02006966E-01
  3.49869127E-02  0.00000000E+00 -5.07406617E-17 -1.17364190E-04 -8.55911042E-03
  0.00000000E+00  1.45716772E-16  8.83388962E-04 -6.52873693E-03 -6.52873693E-03
 -6.85636190E-03  0.00000000E+00  0.00000000E+00 -8.47032947E-19 -1.70469907E-04
  1.86812288E-03 -1.70469907E-04  1.86812288E-03 -1.70469907E-04  1.86812288E-03
 -1.70469907E-04  1.86812288E-03  8.71573254E-05  2.02132422E-03  7.02198595E-01
  3.54190648E-02 -2.02876375E-18 -1.95698492E-17 -9.95084875E-05 -1.51262485E-02
  1.70700050E-17  1.26851654E-16  1.85743589E-03 -6.32092005E-03 -6.32092005E-03
 -6.16438133E-03 -5.57083476E-18  2.86970342E-17  8.37105721E-17  8.71573254E-05
  2.02132422E-03 -7.02198595E-01 -3.54190648E-02 -8.24030172E-18  1.33898968E-17
 -9.95084875E-05  1.51262485E-02  5.07073354E-17 -1.40512602E-16  1.85743589E-03
  6.32092005E-03  6.32092005E-03  6.16438133E-03 -6.07992001E-18 -2.14956441E-17
  9.75578667E-17  8.71573254E-05  2.02132422E-03 -8.71573254E-05 -2.02132422E-03
 -8.71573254E-05 -2.02132422E-03 -8.71573254E-05 -2.02132422E-03  8.62517066E-02
  1.97629216E-02 -1.48122894E-01  2.82615489E-01 -5.63095056E-35 -7.97972799E-17
 -5.06853541E-02  2.39999863E-01  4.73787814E-34  2.72351586E-15 -7.12401249E-03
 -1.41182343E-03 -1.41182343E-03  4.99832609E-03 -1.54621725E-34  7.96502703E-34
  2.67147415E-16  8.62517066E-02  1.97629216E-02 -1.48122894E-01  2.82615489E-01
 -2.28714318E-34 -7.97972799E-17  5.06853541E-02  2.39999863E-01  1.40741128E-33
  2.72351586E-15  7.12401249E-03 -1.41182343E-03 -1.41182343E-03  4.99832609E-03
 -1.68751680E-34 -5.96623974E-34 -2.67147415E-16  8.62517066E-02  1.97629216E-02
  8.62517066E-02  1.97629216E-02  8.62517066E-02  1.97629216E-02  8.62517066E-02
  1.97629216E-02  1.17625760E-01  4.35855634E-02 -1.29640956E-01  2.55937944E-01
  6.24326342E-17 -2.91433544E-16  1.30735483E-01  2.59058504E-01 -8.96336966E-17
  4.91273688E-15  4.74940416E-02  5.54891780E-03  5.54891780E-03 -1.46302632E-02
 -4.51988264E-17  1.82294510E-16 -7.63278329E-17  1.17625760E-01  4.35855634E-02
  1.29640956E-01 -2.55937944E-01  2.60793466E-17  3.26128013E-16  1.30735483E-01
 -2.59058504E-01  2.69661915E-16 -5.31866218E-15  4.74940416E-02 -5.54891780E-03
 -5.54891780E-03  1.46302632E-02 -2.53160009E-17 -1.68733268E-16  5.89805982E-17
  1.17625760E-01  4.35855634E-02 -1.17625760E-01 -4.35855634E-02 -1.17625760E-01
 -4.35855634E-02 -1.17625760E-01 -4.35855634E-02  1.78071088E-01  1.42063184E-01
  1.83271497E-15  4.99653431E-15 -3.61807554E-33  3.17899328E-01  2.60943434E-15
 -3.98544942E-14  5.32196893E-33  1.40474253E-01 -8.93105795E-15 -1.20487345E-02
  1.20487345E-02  2.21569236E-15  2.55592652E-33 -1.02523663E-32  3.67623924E-03
 -8.90355441E-02 -7.10315919E-02  1.80511255E-15  5.02541032E-15 -1.57794542E-33
  3.17899328E-01 -2.62451227E-15 -3.98243476E-14 -1.50915808E-32  1.40474253E-01
  8.92561450E-15 -1.20487345E-02  1.20487345E-02  2.21411630E-15  1.40491791E-33
  9.53531856E-33 -3.67623924E-03 -8.90355441E-02 -7.10315919E-02 -8.90355441E-02
 -7.10315919E-02  1.78071088E-01  1.42063184E-01 -8.90355441E-02 -7.10315919E-02
 -1.29898128E-16 -7.62369710E-16 -8.31091543E-17 -2.22858273E-16  3.17899328E-01
 -4.28189067E-17 -3.34475418E-17  1.65424354E-15  1.40474253E-01  2.30858299E-16
  4.16216368E-16 -1.37270995E-16 -8.29984034E-17 -2.16962974E-16 -1.39126802E-02
  3.67623924E-03  3.39296715E-17  1.54214086E-01  1.23030326E-01 -7.10843052E-17
 -2.28666012E-16  3.17899328E-01 -4.28189067E-17  3.66436413E-17  1.64772202E-15
  1.40474253E-01  2.30858299E-16 -4.15079162E-16 -1.37486322E-16 -8.32137300E-17
 -2.16683198E-16 -1.39126802E-02 -3.67623924E-03 -3.39296715E-17 -1.54214086E-01
 -1.23030326E-01  1.54214086E-01  1.23030326E-01 -1.32771505E-16 -7.63409336E-16
 -1.54214086E-01 -1.23030326E-01  8.17550072E-02  7.73519735E-02  1.89963662E-02
 -4.57502672E-02  5.79040800E-18 -1.73598305E-15  4.10429741E-01 -5.01012805E-02
  2.55868184E-18 -9.07478706E-16  1.94023270E-01  1.02225586E-02  1.02225586E-02
 -1.19743781E-02 -2.53413856E-19  6.69612144E-20  7.38828093E-17  8.17550072E-02
  7.73519735E-02  1.89963662E-02 -4.57502672E-02  5.79040800E-18 -1.73598305E-15
 -4.10429741E-01 -5.01012805E-02  2.55868184E-18 -9.07478706E-16 -1.94023270E-01
  1.02225586E-02  1.02225586E-02 -1.19743781E-02 -2.53413856E-19 -6.69612144E-20
 -7.38828093E-17  8.17550072E-02  7.73519735E-02  8.17550072E-02  7.73519735E-02
  8.17550072E-02  7.73519735E-02  8.17550072E-02  7.73519735E-02 -2.57635375E-18
 -6.86180965E-18  2.63776948E-17 -1.70952419E-16  3.17075509E-01 -2.94844585E-17
  1.08996783E-16 -2.42258905E-16  1.62662765E-01  6.41623551E-17 -2.35365545E-17
  2.02725966E-16  1.60348462E-16  1.32025491E-16 -1.47573321E-02  2.19631613E-02
 -2.50715263E-18  1.85951281E-01  1.76769173E-01  4.13388056E-17 -1.82292003E-16
 -3.17075509E-01 -2.94844585E-17 -1.02971575E-16 -2.54389218E-16 -1.62662765E-01
  6.41623551E-17  2.57011765E-17  2.02389384E-16  1.60011880E-16  1.32620714E-16
  1.47573321E-02  2.19631613E-02  2.50715263E-18 -1.85951281E-01 -1.76769173E-01
 -1.85951281E-01 -1.76769173E-01 -7.99511209E-18 -8.84424200E-18  1.85951281E-01
  1.76769173E-01  2.14718044E-01  2.04115459E-01 -5.49589734E-16  8.93851632E-15
  1.34547485E-16  3.17075509E-01  8.66039777E-16 -1.45608415E-14 -1.07583187E-15
  1.62662765E-01  1.82421817E-14 -1.27802245E-02  1.27802245E-02 -3.02502378E-15
  1.26376126E-17 -4.10819862E-17  2.19631613E-02 -1.07359022E-01 -1.02057729E-01
  5.37147994E-16 -8.92842253E-15 -1.25239774E-16 -3.17075509E-01  9.57817112E-16
  1.46650175E-14  1.09800688E-15 -1.62662765E-01  1.82159426E-14  1.27802245E-02
 -1.27802245E-02  2.88559925E-15  4.13833999E-17 -1.11324283E-17  2.19631613E-02
 -1.07359022E-01 -1.02057729E-01  1.07359022E-01  1.02057729E-01 -2.14718044E-01
 -2.04115459E-01  1.07359022E-01  1.02057729E-01 -1.51117141E-02 -7.77626037E-01
 -9.79554066E-02  1.24203283E-01 -5.29866043E-17  5.98338596E-14  1.25954385E-01
  1.58356803E+00 -2.21619527E-17  1.86975802E-13  4.99885207E-01 -1.13546113E-02
 -1.13546113E-02  2.43053011E-03  2.27003909E-18  4.02911277E-19 -2.24361567E-15
 -1.51117141E-02 -7.77626037E-01 -9.79554066E-02  1.24203283E-01 -8.81890573E-17
  5.97986572E-14 -1.25954385E-01  1.58356803E+00 -4.02211474E-17  1.86957743E-13
 -4.99885207E-01 -1.13546113E-02 -1.13546113E-02  2.43053011E-03  3.90843207E-18
  2.03548946E-18  2.24605407E-15 -1.51117141E-02 -7.77626037E-01 -1.51117141E-02
 -7.77626037E-01 -1.51117141E-02 -7.77626037E-01 -1.51117141E-02 -7.77626037E-01
  9.81802577E-02  1.11142649E+00 -2.15038785E-14  5.66371650E-14 -6.22898792E-17
 -2.64653573E-01  3.08179712E-14  2.99970377E-13 -2.94207880E-17 -7.51014435E-01
  1.02415147E-13 -1.37901340E-02  1.37901340E-02  4.67998516E-15  2.80012021E-18
 -2.25848666E-18  1.51028533E-02 -4.90901289E-02 -5.55713243E-01 -2.14938132E-14
  5.66670941E-14 -8.97770541E-18 -2.64653573E-01 -3.08326220E-14  2.99998885E-13
 -2.07113360E-18 -7.51014435E-01 -1.02420536E-13 -1.37901340E-02  1.37901340E-02
  4.67812930E-15  3.18864396E-19 -1.43433678E-18 -1.51028533E-02 -4.90901289E-02
 -5.55713243E-01 -4.90901289E-02 -5.55713243E-01  9.81802577E-02  1.11142649E+00
 -4.90901289E-02 -5.55713243E-01  3.52154306E-16  1.71394770E-15  1.64427800E-16
  1.38224752E-15 -2.64653573E-01 -1.09986690E-16  9.78445742E-17 -5.41450675E-15
 -7.51014435E-01 -4.32432887E-17 -1.10144109E-15  4.22752402E-16  4.11131538E-16
  3.31517784E-16 -1.59234751E-02  1.51028533E-02 -4.86718090E-17  8.50265973E-02
  9.62523571E-01  2.04236161E-16  1.44309832E-15 -2.64653573E-01 -1.27757415E-16
 -1.27143470E-16 -5.35791386E-15 -7.51014435E-01 -5.23598402E-17  1.09061156E-15
  4.24092696E-16  4.11039277E-16  3.27633327E-16 -1.59234751E-02 -1.51028533E-02
  4.99027501E-17 -8.50265973E-02 -9.62523571E-01  8.50265973E-02  9.62523571E-01
  3.66498509E-16  1.71247729E-15 -8.50265973E-02 -9.62523571E-01 -1.23796897E-02
 -7.85477281E-01 -1.34365436E-01  1.24396774E-01  6.06664497E-18  7.38308633E-14
  1.38140349E-02  2.33466738E+00  1.63974232E-15  5.03480096E-13 -2.92036062E-01
 -7.17896409E-03 -7.17896409E-03 -1.92801745E-02 -7.77707358E-17  1.15680406E-16
  3.14296670E-15 -1.23796897E-02 -7.85477281E-01  1.34365436E-01 -1.24396774E-01
  2.07295970E-16 -7.29371524E-14  1.38140349E-02 -2.33466738E+00 -1.11388635E-15
 -5.04578568E-13 -2.92036062E-01  7.17896409E-03  7.17896409E-03  1.92801745E-02
  5.09534587E-18 -6.27489063E-17  3.36621679E-15 -1.23796897E-02 -7.85477281E-01
  1.23796897E-02  7.85477281E-01  1.23796897E-02  7.85477281E-01  1.23796897E-02
  7.85477281E-01  4.54283343E-02  1.45062550E+00  4.62666838E-14  1.13009249E-13
  2.37544691E-16 -3.32482962E-01  7.29454092E-13 -1.18227055E-12 -1.94430863E-15
 -1.24053744E+00  3.34226327E-12 -3.29204556E-03  3.29204556E-03  5.20831843E-14
  1.17921588E-17 -1.30884762E-16 -1.09216199E-02 -2.27141671E-02 -7.25312749E-01
 -4.64395039E-14 -1.13843391E-13 -1.19330685E-16  3.32482962E-01  7.29509142E-13
  1.18731168E-12  2.55127679E-15  1.24053744E+00  3.34078738E-12  3.29204556E-03
 -3.29204556E-03 -5.30029037E-14 -4.67035710E-17 -1.66809729E-16 -1.09216199E-02
 -2.27141671E-02 -7.25312749E-01  2.27141671E-02  7.25312749E-01 -4.54283343E-02
 -1.45062550E+00  2.27141671E-02  7.25312749E-01 -6.24104608E-17 -4.87263130E-16
 -2.25819118E-16  4.32430836E-16 -3.32482962E-01 -3.46533172E-17 -8.92400417E-17
  2.35753059E-15 -1.24053744E+00 -2.71062762E-16 -2.21646186E-16 -1.60374429E-16
 -1.12566196E-16 -4.16016029E-16 -3.80132678E-03 -1.09216199E-02  1.97201119E-17
  3.93420916E-02  1.25627853E+00  6.19500464E-18  2.25510104E-16  3.32482962E-01
  2.07153488E-16  1.35175694E-16 -5.53978756E-16  1.24053744E+00  7.44511583E-16
 -1.24790295E-16 -1.49022487E-16 -1.09539955E-16 -3.89546140E-16  3.80132678E-03
 -1.09216199E-02 -2.63802369E-17 -3.93420916E-02 -1.25627853E+00 -3.93420916E-02
 -1.25627853E+00 -1.35118913E-16 -7.68305939E-16  3.93420916E-02  1.25627853E+00
 -4.94616169E-02 -4.67528814E-01  4.17358448E-02 -3.82533742E-02  1.53662578E-16
  6.63787222E-13  3.70661546E-01 -7.25465619E-01  7.08819514E-16  2.42217618E-12
  1.67639169E+00 -1.21962128E-02 -1.21962128E-02  3.03237632E-02 -5.10158675E-17
  3.26429534E-17  2.15022600E-14 -4.94616169E-02 -4.67528814E-01 -4.17358448E-02
  3.82533742E-02  1.88933544E-16 -6.64267943E-13  3.70661546E-01  7.25465619E-01
 -6.16798737E-16 -2.42083974E-12  1.67639169E+00  1.21962128E-02  1.21962128E-02
 -3.03237632E-02  1.68994736E-17  9.23318498E-18  2.13869934E-14 -4.94616169E-02
 -4.67528814E-01  4.94616169E-02  4.67528814E-01  4.94616169E-02  4.67528814E-01
  4.94616169E-02  4.67528814E-01 -1.14232555E-01 -4.38758292E-02  9.85740600E-03
  3.36804499E-02 -3.21610685E-17  9.53032517E-17 -6.18955601E-01  3.95076566E-01
 -1.37120988E-16 -2.38786428E-16  9.36866182E-01 -3.60421315E-02 -3.60421315E-02
  1.09767985E-01 -1.75504013E-18  5.13795244E-19  1.48376354E-16 -1.14232555E-01
 -4.38758292E-02  9.85740600E-03  3.36804499E-02  9.21696030E-18  3.86310604E-17
  6.18955601E-01  3.95076566E-01  4.55872927E-17 -4.21916348E-16 -9.36866182E-01
 -3.60421315E-02 -3.60421315E-02  1.09767985E-01 -7.71742063E-19 -1.55249622E-18
 -1.46194237E-16 -1.14232555E-01 -4.38758292E-02 -1.14232555E-01 -4.38758292E-02
 -1.14232555E-01 -4.38758292E-02 -1.14232555E-01 -4.38758292E-02 -3.73354606E-01
 -1.69481473E-02 -3.02069133E-16  3.43204188E-15  4.29700819E-17 -4.99389423E-01
 -1.79570796E-15  1.94978716E-15  1.91175694E-16  7.50334475E-01  3.91686200E-15
  5.93307565E-02 -5.93307565E-02  1.49977413E-15  2.97169317E-18 -1.21063684E-18
 -5.12792432E-02  1.86677303E-01  8.47407363E-03 -2.76479524E-16  3.42536451E-15
 -8.58867902E-18 -4.99389423E-01  1.56069833E-15  1.80309744E-15 -2.97261249E-17
  7.50334475E-01 -4.93271528E-15  5.93307565E-02 -5.93307565E-02  1.51613900E-15
  1.86825204E-18  2.58140851E-18  5.12792432E-02  1.86677303E-01  8.47407363E-03
  1.86677303E-01  8.47407363E-03 -3.73354606E-01 -1.69481473E-02  1.86677303E-01
  8.47407363E-03 -1.98624015E-16 -1.47940908E-15 -1.48676296E-16 -4.51938585E-16
 -4.99389423E-01 -3.06341057E-18 -1.02924286E-16  2.73570824E-15  7.50334475E-01
  7.05198515E-16  5.46589116E-16 -5.29082224E-16 -4.06975087E-16 -5.17802637E-16
  6.85092565E-02 -5.12792432E-02  3.76713183E-17 -3.23334573E-01 -1.46775261E-02
 -2.19516919E-16 -3.99870599E-16 -4.99389423E-01 -5.50529533E-17  3.20733154E-17
  3.97154911E-15  7.50334475E-01  4.54160057E-16 -6.86785766E-16 -5.37309274E-16
 -4.12392182E-16 -5.22662844E-16  6.85092565E-02  5.12792432E-02 -3.66092605E-17
  3.23334573E-01  1.46775261E-02 -3.23334573E-01 -1.46775261E-02 -2.00359296E-16
 -1.72117586E-15  3.23334573E-01  1.46775261E-02 -1.35912359E-01 -2.72595290E-01
 -4.72166146E-02  3.40578656E-01  1.47967889E-16  1.22179765E-13 -7.66303163E-01
 -9.29336877E-01  6.60804466E-17 -3.21637364E-13  1.79149767E+00  3.23509471E-02
  3.23509471E-02 -7.34547733E-02  7.48619596E-17 -1.26690885E-17 -1.37422622E-16
 -1.35912359E-01 -2.72595290E-01  4.72166146E-02 -3.40578656E-01  8.98700315E-17
 -1.22462020E-13 -7.66303163E-01  9.29336877E-01 -7.21178820E-16  3.22452005E-13
  1.79149767E+00 -3.23509471E-02 -3.23509471E-02  7.34547733E-02  6.71048449E-17
  8.07091832E-17 -2.66136746E-16 -1.35912359E-01 -2.72595290E-01  1.35912359E-01
  2.72595290E-01  1.35912359E-01  2.72595290E-01  1.35912359E-01  2.72595290E-01
 -3.06728470E-01 -7.19532405E-01 -1.03716197E-14 -8.00416960E-14 -2.67398888E-17
 -6.05600732E-01 -1.38274983E-13  2.17515031E-13  1.71669169E-15  2.02034472E+00
  2.52574182E-13  7.44473284E-02 -7.44473284E-02 -1.31095154E-14  4.70720685E-17
  1.39405425E-16 -1.38737269E-03  1.53364235E-01  3.59766203E-01  1.06154029E-14
  8.12686428E-14 -1.37786047E-16  6.05600732E-01 -1.38429652E-13 -2.23540331E-13
 -2.08599378E-15 -2.02034472E+00  2.54051170E-13 -7.44473284E-02  7.44473284E-02
  1.40598376E-14 -2.29831786E-18  1.18324197E-16 -1.38737269E-03  1.53364235E-01
  3.59766203E-01 -1.53364235E-01 -3.59766203E-01  3.06728470E-01  7.19532405E-01
 -1.53364235E-01 -3.59766203E-01  2.60799272E-17  1.91499084E-16  2.10074549E-16
  5.86986641E-18 -6.05600732E-01  6.57865447E-18 -3.59071639E-16 -3.17354559E-15
  2.02034472E+00  1.41606455E-16  1.39494453E-15  2.04797493E-16  2.79464354E-16
  3.60161985E-16  8.59643702E-02 -1.38737269E-03  4.81757414E-17 -2.65634647E-01
 -6.23133342E-01  7.98212560E-17 -1.42678611E-16  6.05600732E-01 -2.25470228E-16
 -1.23067799E-16 -1.33180207E-16 -2.02034472E+00  1.83810670E-16  1.28477299E-15
  1.93826675E-16  2.38684207E-16  3.90448016E-16 -8.59643702E-02 -1.38737269E-03
 -4.51439256E-17  2.65634647E-01  6.23133342E-01  2.65634647E-01  6.23133342E-01
  1.29464916E-16  4.07760783E-16 -2.65634647E-01 -6.23133342E-01 -5.32320607E-01
  1.11877160E+00  7.57834152E-15  1.55268465E-13 -5.84946594E-17  6.30687759E-01
 -1.17406878E-14 -3.36330688E-13 -1.38977541E-15 -8.97952432E-01 -4.68379756E-14
  6.28169575E-02 -6.28169575E-02  1.95788315E-14 -3.71151877E-17  9.72524913E-18
 -1.46545717E-01  2.66160304E-01 -5.59385799E-01  7.48622388E-15  1.55145392E-13
  1.95998210E-17  6.30687759E-01  1.15376588E-14 -3.33317648E-13  5.28942721E-16
 -8.97952432E-01  5.07787324E-14  6.28169575E-02 -6.28169575E-02  1.95886586E-14
 -6.16196122E-20 -2.28984330E-17  1.46545717E-01  2.66160304E-01 -5.59385799E-01
  2.66160304E-01 -5.59385799E-01 -5.32320607E-01  1.11877160E+00  2.66160304E-01
 -5.59385799E-01 -3.14559642E-17  1.59347421E-15  8.48163365E-17  1.37395477E-15
  6.30687759E-01  2.00905950E-16  1.05049825E-16 -4.15649419E-15 -8.97952432E-01
 -4.73899825E-16 -4.55140447E-16  1.41733089E-16  2.69638537E-16  1.86594116E-16
  7.25347746E-02 -1.46545717E-01 -7.14505083E-17 -4.61003169E-01  9.68884625E-01
  1.12235128E-16  1.42881570E-15  6.30687759E-01  1.36465733E-16  6.64138572E-17
 -3.74479761E-15 -8.97952432E-01  3.99393166E-18  8.65676878E-16  1.59504137E-16
  2.61682863E-16  1.68938348E-16  7.25347746E-02  1.46545717E-01  7.04613266E-17
  4.61003169E-01 -9.68884625E-01 -4.61003169E-01  9.68884625E-01 -8.46329283E-17
  1.34556896E-15  4.61003169E-01 -9.68884625E-01 -6.31182457E-01  1.17632932E+00
  3.14801048E-15  4.80202130E-13 -6.33708949E-17  5.55182846E-01  1.37020304E-13
 -1.25427285E-12 -6.56969307E-16 -8.49962867E-01 -1.17531540E-13  1.22665651E-01
 -1.22665651E-01  2.18114700E-14  7.81790163E-17 -5.08238507E-18 -4.45619189E-02
  3.15591229E-01 -5.88164662E-01 -3.39712456E-15 -4.81056713E-13  2.31117343E-16
 -5.55182846E-01  1.37030329E-13  1.25833801E-12  1.15659030E-15  8.49962867E-01
 -1.18396828E-13 -1.22665651E-01  1.22665651E-01 -2.25055642E-14 -1.49283812E-16
 -1.61115959E-16 -4.45619189E-02  3.15591229E-01 -5.88164662E-01 -3.15591229E-01
  5.88164662E-01  6.31182457E-01 -1.17632932E+00 -3.15591229E-01  5.88164662E-01
  3.59461302E-17  5.34259765E-16 -2.08056188E-16  3.80063672E-16  5.55182846E-01
  9.19351181E-17  2.64897623E-16  2.50816105E-15 -8.49962867E-01 -7.12210312E-16
 -2.10611191E-15 -3.00180814E-16 -1.75649393E-16 -3.59828038E-16  1.41642094E-01
 -4.45619189E-02  4.64631783E-17 -5.46620042E-01  1.01873108E+00 -8.83668676E-18
  5.60815024E-16 -5.55182846E-01  2.02415697E-16  2.36975495E-16 -1.48758873E-15
  8.49962867E-01  1.00133076E-15 -2.04311848E-15 -2.47095082E-16 -1.72946044E-16
 -3.89895142E-16 -1.41642094E-01 -4.45619189E-02 -5.39470206E-17  5.46620042E-01
 -1.01873108E+00  5.46620042E-01 -1.01873108E+00 -3.40626275E-16 -1.19834813E-15
 -5.46620042E-01  1.01873108E+00  5.16364817E-01 -3.60357232E-01  5.67636999E-02
 -2.86998528E-01  2.52804817E-16 -1.98380848E-14 -3.63788560E-01  3.85914182E-01
 -9.97012192E-16  3.03288877E-14  1.77433398E-01  3.87002737E-02  3.87002737E-02
 -8.57327019E-02  1.44765627E-17 -1.97846310E-17  6.40548626E-15  5.16364817E-01
 -3.60357232E-01  5.67636999E-02 -2.86998528E-01 -1.99756624E-16 -1.96749526E-14
  3.63788560E-01  3.85914182E-01  7.14840085E-16  3.02795333E-14 -1.77433398E-01
  3.87002737E-02  3.87002737E-02 -8.57327019E-02 -5.55533150E-18 -5.59068069E-19
 -6.41913907E-15  5.16364817E-01 -3.60357232E-01  5.16364817E-01 -3.60357232E-01
  5.16364817E-01 -3.60357232E-01  5.16364817E-01 -3.60357232E-01  4.12510198E-01
 -8.36359781E-01  3.90219004E-02 -9.08716810E-01 -3.16265806E-16  1.93069758E-13
 -3.59611290E-01  1.91521847E+00  1.10146813E-15 -3.97711503E-13  6.46999417E-01
 -1.66546283E-02 -1.66546283E-02 -6.58420216E-02 -9.37443843E-17  1.19604400E-17
 -1.65413863E-14  4.12510198E-01 -8.36359781E-01 -3.90219004E-02  9.08716810E-01
  1.80740689E-16 -1.92491864E-13 -3.59611290E-01 -1.91521847E+00 -1.76490872E-16
  3.97520928E-13  6.46999417E-01  1.66546283E-02  1.66546283E-02  6.58420216E-02
 -2.69251896E-17 -5.95204871E-17 -1.65210877E-14  4.12510198E-01 -8.36359781E-01
 -4.12510198E-01  8.36359781E-01 -4.12510198E-01  8.36359781E-01 -4.12510198E-01
  8.36359781E-01 -1.34236706E-01 -7.89598667E-01 -5.47187263E-02 -1.44706517E+00
  6.49807192E-16  6.59088202E-14 -3.10535114E-04  3.16223369E+00 -1.00866754E-15
 -1.04175799E-13  5.32674577E-01 -5.14625893E-02 -5.14625893E-02 -1.63149084E-01
  1.28178401E-16 -5.38746380E-17 -2.86109651E-14 -1.34236706E-01 -7.89598667E-01
 -5.47187263E-02 -1.44706517E+00 -9.67090908E-17  6.73764466E-14  3.10535114E-04
  3.16223369E+00 -2.27654275E-16 -1.10414173E-13 -5.32674577E-01 -5.14625893E-02
 -5.14625893E-02 -1.63149084E-01 -1.40414773E-16 -1.75314862E-17  2.87341030E-14
 -1.34236706E-01 -7.89598667E-01 -1.34236706E-01 -7.89598667E-01 -1.34236706E-01
 -7.89598667E-01 -1.34236706E-01 -7.89598667E-01 -4.55670697E-01 -5.29369807E-01
 -1.31504458E-01 -1.60155948E+00 -1.45664836E-16  8.57054685E-14  4.41694945E-03
  5.74677085E+00  1.36471363E-15 -2.17390339E-13 -1.28613573E+00 -7.58807053E-02
 -7.58807053E-02 -2.90274602E-03 -3.48360024E-17  2.02994765E-16 -3.54725881E-14
 -4.55670697E-01 -5.29369807E-01  1.31504458E-01  1.60155948E+00  1.19694505E-16
 -8.43253740E-14  4.41694945E-03 -5.74677085E+00 -2.20785561E-17  2.14277003E-13
 -1.28613573E+00  7.58807053E-02  7.58807053E-02  2.90274602E-03 -2.02867647E-16
 -7.97063944E-17 -3.51097674E-14 -4.55670697E-01 -5.29369807E-01  4.55670697E-01
  5.29369807E-01  4.55670697E-01  5.29369807E-01  4.55670697E-01  5.29369807E-01
 -1.13777950E-01  1.01656854E-01 -2.35676673E-15 -7.28116043E-14  4.94845319E-17
  1.05003385E-01  5.97278980E-16  1.56302353E-13 -5.90125662E-17 -1.44208493E-02
  3.09474887E-14  3.48348035E-01 -3.48348035E-01  3.17714296E-15 -2.74264772E-18
  8.01846463E-21  5.27701068E-01  5.68889751E-02 -5.08284270E-02 -2.37834316E-15
 -7.26000888E-14 -3.43500102E-17  1.05003385E-01 -6.60219336E-16  1.57207184E-13
  1.08104910E-17 -1.44208493E-02 -3.06008236E-14  3.48348035E-01 -3.48348035E-01
  3.17386685E-15  1.72983269E-18  3.66027005E-19 -5.27701068E-01  5.68889751E-02
 -5.08284270E-02  5.68889751E-02 -5.08284270E-02 -1.13777950E-01  1.01656854E-01
  5.68889751E-02 -5.08284270E-02 -2.62566974E-16 -4.65032989E-16  1.32097196E-18
  2.05802726E-16  1.05003385E-01 -6.43546629E-17  1.71374793E-17 -6.27189208E-16
 -1.44208493E-02  5.66807757E-16  2.27704270E-16 -5.05593330E-17  1.44251109E-16
 -3.08363872E-17  4.02237664E-01  5.27701068E-01  1.07681467E-16 -9.85345953E-02
  8.80374181E-02 -3.23005313E-17 -2.77033188E-16  1.05003385E-01 -2.83978053E-17
  3.70548642E-17  1.18500668E-15 -1.44208493E-02  4.94141650E-16 -1.12089873E-17
 -6.90108461E-17  1.22720992E-16 -4.41989718E-17  4.02237664E-01 -5.27701068E-01
 -1.06979049E-16  9.85345953E-02 -8.80374181E-02 -9.85345953E-02  8.80374181E-02
 -2.97126240E-16 -7.33511337E-16  9.85345953E-02 -8.80374181E-02  1.97603319E-01
 -4.79876286E-02  2.97195342E-02 -3.90651366E-01  1.66276817E-17 -3.97148225E-15
  2.61552681E-01  4.94050399E-02 -1.37453853E-16 -5.64077540E-15 -3.54355380E-01
 -3.27676113E-01 -3.27676113E-01  6.70660202E-01  2.32715859E-17  6.81283442E-18
 -1.29701350E-14  1.97603319E-01 -4.79876286E-02  2.97195342E-02 -3.90651366E-01
 -8.54612238E-17 -4.44121767E-15 -2.61552681E-01  4.94050399E-02  3.04424668E-16
 -2.77150851E-15  3.54355380E-01 -3.27676113E-01 -3.27676113E-01  6.70660202E-01
  1.56538785E-18 -1.76498205E-17  1.29477952E-14  1.97603319E-01 -4.79876286E-02
  1.97603319E-01 -4.79876286E-02  1.97603319E-01 -4.79876286E-02  1.97603319E-01
 -4.79876286E-02  1.60351249E-16 -1.25576877E-16 -2.68039510E-17  6.89891789E-16
 -2.43793320E-02 -5.68080585E-17 -1.41856143E-16 -8.34320773E-16  7.06321797E-01
  7.58647707E-17  5.46730977E-16 -5.51780526E-16 -2.78731244E-16 -3.83826365E-16
 -5.29602896E-01 -5.66371695E-01 -1.00438910E-16 -1.77057591E-01 -2.09662783E-01